 DBCSR| CPU Multiplication driver                                           BLAS
 DBCSR| Multrec recursion limit                                              512
 DBCSR| Multiplication stack size                                           1000
 DBCSR| Maximum elements for images                                    UNLIMITED
 DBCSR| Multiplicative factor virtual images                                   1
 DBCSR| Use multiplication densification                                       T
 DBCSR| Multiplication size stacks                                             3
 DBCSR| Number of 3D layers                                               SINGLE
 DBCSR| Use MPI memory allocation                                              T
 DBCSR| Use RMA algorithm                                                      F
 DBCSR| Use Communication thread                                               T
 DBCSR| Communication thread load                                             87


  **** **** ******  **  PROGRAM STARTED AT               2019-06-07 20:37:08.131
 ***** ** ***  *** **   PROGRAM STARTED ON                                tcopt4
 **    ****   ******    PROGRAM STARTED BY                               wilhelm
 ***** **    ** ** **   PROGRAM PROCESS ID                                 96534
  **** **  *******  **  PROGRAM STARTED IN /data/wilhelm/2_job_test/11_GW100/3_c
                                           alcs/77_CO2

 CP2K| version string:                    CP2K version 7.0 (Development Version)
 CP2K| source code revision number:                                  git:bc2813a
 CP2K| cp2kflags: libint fftw3 libxc pexsi elpa=201705 parallel mpi3 scalapack q
 CP2K|            uip libderiv_max_am1=5 libint_max_am=6
 CP2K| is freely available from                            https://www.cp2k.org/
 CP2K| Program compiled at                         Sun Jun  2 14:38:23 CEST 2019
 CP2K| Program compiled on                                                tcopt4
 CP2K| Program compiled for                            local_valgrind_March_2019
 CP2K| Data directory path              /data/wilhelm/1_git_repository/cp2k/data
 CP2K| Input file name                                                    GW.inp

 GLOBAL| Force Environment number                                              1
 GLOBAL| Basis set file name                              BASIS_def2_QZVP_RI_ALL
 GLOBAL| Potential file name                                           POTENTIAL
 GLOBAL| MM Potential file name                                     MM_POTENTIAL
 GLOBAL| Coordinate file name                                         77_CO2.xyz
 GLOBAL| Method name                                                        CP2K
 GLOBAL| Project name                                                   ALL_ELEC
 GLOBAL| Preferred FFT library                                             FFTW3
 GLOBAL| Preferred diagonalization lib.                                       SL
 GLOBAL| Run type                                                         ENERGY
 GLOBAL| All-to-all communication in single precision                          F
 GLOBAL| FFTs using library dependent lengths                                  F
 GLOBAL| Global print level                                               MEDIUM
 GLOBAL| MPI I/O enabled                                                       T
 GLOBAL| Total number of message passing processes                            24
 GLOBAL| Number of threads for this process                                    1
 GLOBAL| This output is from process                                           0
 GLOBAL| CPU model name :  Intel(R) Xeon(R) CPU E5-2697 v3 @ 2.60GHz

 MEMORY| system memory details [Kb]
 MEMORY|                        rank 0           min           max       average
 MEMORY| MemTotal            396954008     396954008     396954008     396954008
 MEMORY| MemFree             336234628     336234628     336234628     336234628
 MEMORY| Buffers                341700        341700        341700        341700
 MEMORY| Cached               41428296      41428296      41428296      41428296
 MEMORY| Slab                  1445408       1445408       1445408       1445408
 MEMORY| SReclaimable          1303896       1303896       1303896       1303896
 MEMORY| MemLikelyFree       379308520     379308520     379308520     379308520


 *** Fundamental physical constants (SI units) ***

 *** Literature: B. J. Mohr and B. N. Taylor,
 ***             CODATA recommended values of the fundamental physical
 ***             constants: 2006, Web Version 5.1
 ***             http://physics.nist.gov/constants

 Speed of light in vacuum [m/s]                             2.99792458000000E+08
 Magnetic constant or permeability of vacuum [N/A**2]       1.25663706143592E-06
 Electric constant or permittivity of vacuum [F/m]          8.85418781762039E-12
 Planck constant (h) [J*s]                                  6.62606896000000E-34
 Planck constant (h-bar) [J*s]                              1.05457162825177E-34
 Elementary charge [C]                                      1.60217648700000E-19
 Electron mass [kg]                                         9.10938215000000E-31
 Electron g factor [ ]                                     -2.00231930436220E+00
 Proton mass [kg]                                           1.67262163700000E-27
 Fine-structure constant                                    7.29735253760000E-03
 Rydberg constant [1/m]                                     1.09737315685270E+07
 Avogadro constant [1/mol]                                  6.02214179000000E+23
 Boltzmann constant [J/K]                                   1.38065040000000E-23
 Atomic mass unit [kg]                                      1.66053878200000E-27
 Bohr radius [m]                                            5.29177208590000E-11

 *** Conversion factors ***

 [u] -> [a.u.]                                              1.82288848426455E+03
 [Angstrom] -> [Bohr] = [a.u.]                              1.88972613288564E+00
 [a.u.] = [Bohr] -> [Angstrom]                              5.29177208590000E-01
 [a.u.] -> [s]                                              2.41888432650478E-17
 [a.u.] -> [fs]                                             2.41888432650478E-02
 [a.u.] -> [J]                                              4.35974393937059E-18
 [a.u.] -> [N]                                              8.23872205491840E-08
 [a.u.] -> [K]                                              3.15774647902944E+05
 [a.u.] -> [kJ/mol]                                         2.62549961709828E+03
 [a.u.] -> [kcal/mol]                                       6.27509468713739E+02
 [a.u.] -> [Pa]                                             2.94210107994716E+13
 [a.u.] -> [bar]                                            2.94210107994716E+08
 [a.u.] -> [atm]                                            2.90362800883016E+08
 [a.u.] -> [eV]                                             2.72113838565563E+01
 [a.u.] -> [Hz]                                             6.57968392072181E+15
 [a.u.] -> [1/cm] (wave numbers)                            2.19474631370540E+05
 [a.u./Bohr**2] -> [1/cm]                                   5.14048714338585E+03
 

 CELL_TOP| Volume [angstrom^3]:                                         4096.000
 CELL_TOP| Vector a [angstrom    16.000     0.000     0.000    |a| =      16.000
 CELL_TOP| Vector b [angstrom     0.000    16.000     0.000    |b| =      16.000
 CELL_TOP| Vector c [angstrom     0.000     0.000    16.000    |c| =      16.000
 CELL_TOP| Angle (b,c), alpha [degree]:                                   90.000
 CELL_TOP| Angle (a,c), beta  [degree]:                                   90.000
 CELL_TOP| Angle (a,b), gamma [degree]:                                   90.000
 CELL_TOP| Numerically orthorhombic:                                         YES

 GENERATE|  Preliminary Number of Bonds generated:                             0
 GENERATE|  Achieved consistency in connectivity generation.

 CELL| Volume [angstrom^3]:                                             4096.000
 CELL| Vector a [angstrom]:      16.000     0.000     0.000    |a| =      16.000
 CELL| Vector b [angstrom]:       0.000    16.000     0.000    |b| =      16.000
 CELL| Vector c [angstrom]:       0.000     0.000    16.000    |c| =      16.000
 CELL| Angle (b,c), alpha [degree]:                                       90.000
 CELL| Angle (a,c), beta  [degree]:                                       90.000
 CELL| Angle (a,b), gamma [degree]:                                       90.000
 CELL| Numerically orthorhombic:                                             YES

 CELL_REF| Volume [angstrom^3]:                                         4096.000
 CELL_REF| Vector a [angstrom    16.000     0.000     0.000    |a| =      16.000
 CELL_REF| Vector b [angstrom     0.000    16.000     0.000    |b| =      16.000
 CELL_REF| Vector c [angstrom     0.000     0.000    16.000    |c| =      16.000
 CELL_REF| Angle (b,c), alpha [degree]:                                   90.000
 CELL_REF| Angle (a,c), beta  [degree]:                                   90.000
 CELL_REF| Angle (a,b), gamma [degree]:                                   90.000
 CELL_REF| Numerically orthorhombic:                                         YES

 *******************************************************************************
 *******************************************************************************
 **                                                                           **
 **     #####                         ##              ##                      **
 **    ##   ##            ##          ##              ##                      **
 **   ##     ##                       ##            ######                    **
 **   ##     ##  ##   ##  ##   #####  ##  ##   ####   ##    #####    #####    **
 **   ##     ##  ##   ##  ##  ##      ## ##   ##      ##   ##   ##  ##   ##   **
 **   ##  ## ##  ##   ##  ##  ##      ####     ###    ##   ######   ######    **
 **    ##  ###   ##   ##  ##  ##      ## ##      ##   ##   ##       ##        **
 **     #######   #####   ##   #####  ##  ##  ####    ##    #####   ##        **
 **           ##                                                    ##        **
 **                                                                           **
 **                                                ... make the atoms dance   **
 **                                                                           **
 **            Copyright (C) by CP2K developers group (2000 - 2019)           **
 **                                                                           **
 *******************************************************************************

 DFT| Spin restricted Kohn-Sham (RKS) calculation                            RKS
 DFT| Multiplicity                                                             1
 DFT| Number of spin states                                                    1
 DFT| Charge                                                                   0
 DFT| Self-interaction correction (SIC)                                       NO
 DFT| Cutoffs: density                                              1.000000E-10
 DFT|          gradient                                             1.000000E-10
 DFT|          tau                                                  1.000000E-10
 DFT|          cutoff_smoothing_range                               0.000000E+00
 DFT| XC density smoothing                                                  NONE
 DFT| XC derivatives                                                          PW
 FUNCTIONAL| ROUTINE=NEW
 FUNCTIONAL| PBE:
 FUNCTIONAL| J.P.Perdew, K.Burke, M.Ernzerhof, Phys. Rev. Letter, vol. 77, n 18,
 FUNCTIONAL|  pp. 3865-3868, (1996){spin unpolarized}                           

 QS| Method:                                                                GAPW
 QS| Density plane wave grid type                        NON-SPHERICAL FULLSPACE
 QS| Number of grid levels:                                                    4
 QS| Density cutoff [a.u.]:                                                200.0
 QS| Multi grid cutoff [a.u.]: 1) grid level                               200.0
 QS|                           2) grid level                                66.7
 QS|                           3) grid level                                22.2
 QS|                           4) grid level                                 7.4
 QS| Grid level progression factor:                                          3.0
 QS| Relative density cutoff [a.u.]:                                        25.0
 QS| Consistent realspace mapping and integration 
 QS| Interaction thresholds: eps_pgf_orb:                                1.0E-05
 QS|                         eps_filter_matrix:                          0.0E+00
 QS|                         eps_core_charge:                            1.0E-12
 QS|                         eps_rho_gspace:                             1.0E-10
 QS|                         eps_rho_rspace:                             1.0E-10
 QS|                         eps_gvg_rspace:                             1.0E-05
 QS|                         eps_ppl:                                    1.0E-02
 QS|                         eps_ppnl:                                   1.0E-07
 QS| GAPW|                   eps_fit:                                    1.0E-04
 QS| GAPW|                   eps_iso:                                    1.0E-12
 QS| GAPW|                   eps_svd:                                    1.0E-08
 QS| GAPW|                   eps_cpc:                                    1.0E-10
 QS| GAPW|   atom-r-grid: quadrature:                 GC_LOG                        
 QS| GAPW|      atom-s-grid:  max l :                                          8
 QS| GAPW|      max_l_rho0 :                                                   2


 ATOMIC KIND INFORMATION

  1. Atomic kind: O                                     Number of atoms:       2

     Orbital Basis Set                                                 def2-QZVP

       Number of orbital shell sets:                                          17
       Number of orbital shells:                                              17
       Number of primitive Cartesian functions:                               29
       Number of Cartesian basis functions:                                   72
       Number of spherical basis functions:                                   57
       Norm type:                                                              2

       Normalised Cartesian orbitals:

                        Set   Shell   Orbital            Exponent    Coefficient

                          1       1    1s           116506.469080       0.323542
                                                     17504.349724       0.604284
                                                      3993.451323       1.042947
                                                      1133.006319       1.694135
                                                       369.995696       2.585616
                                                       133.620743       3.631450
                                                        52.035644       4.414414
                                                        21.461939       4.188022

                          2       1    1s               89.835051       1.972527
                                                        26.428011       7.687249

                          3       1    1s                9.282282       3.790104

                          4       1    1s                4.094773       2.051552

                          5       1    1s                1.325535       0.880448

                          6       1    1s                0.518772       0.435655

                          7       1    1s                0.197727       0.211329

                          8       1    1px             191.152558       2.569255
                                                        45.233357       3.383308
                                                        14.353466       3.764009
                                                         5.242237       3.495516
                                                         2.079242       2.436773
                          8       1    1py             191.152558       2.569255
                                                        45.233357       3.383308
                                                        14.353466       3.764009
                                                         5.242237       3.495516
                                                         2.079242       2.436773
                          8       1    1pz             191.152558       2.569255
                                                        45.233357       3.383308
                                                        14.353466       3.764009
                                                         5.242237       3.495516
                                                         2.079242       2.436773

                          9       1    1px               0.842824       1.151095
                          9       1    1py               0.842824       1.151095
                          9       1    1pz               0.842824       1.151095

                         10       1    1px               0.336177       0.364880
                         10       1    1py               0.336177       0.364880
                         10       1    1pz               0.336177       0.364880

                         11       1    1px               0.128640       0.109815
                         11       1    1py               0.128640       0.109815
                         11       1    1pz               0.128640       0.109815

                         12       1    1dx2              3.775000      16.827288
                         12       1    1dxy              3.775000      29.145718
                         12       1    1dxz              3.775000      29.145718
                         12       1    1dy2              3.775000      16.827288
                         12       1    1dyz              3.775000      29.145718
                         12       1    1dz2              3.775000      16.827288

                         13       1    1dx2              1.300000       2.605016
                         13       1    1dxy              1.300000       4.512019
                         13       1    1dxz              1.300000       4.512019
                         13       1    1dy2              1.300000       2.605016
                         13       1    1dyz              1.300000       4.512019
                         13       1    1dz2              1.300000       2.605016

                         14       1    1dx2              0.444000       0.397493
                         14       1    1dxy              0.444000       0.688478
                         14       1    1dxz              0.444000       0.688478
                         14       1    1dy2              0.444000       0.397493
                         14       1    1dyz              0.444000       0.688478
                         14       1    1dz2              0.444000       0.397493

                         15       1    1fx3              2.666000      13.370258
                         15       1    1fx2y             2.666000      29.896805
                         15       1    1fx2z             2.666000      29.896805
                         15       1    1fxy2             2.666000      29.896805
                         15       1    1fxyz             2.666000      51.782785
                         15       1    1fxz2             2.666000      29.896805
                         15       1    1fy3              2.666000      13.370258
                         15       1    1fy2z             2.666000      29.896805
                         15       1    1fyz2             2.666000      29.896805
                         15       1    1fz3              2.666000      13.370258

                         16       1    1fx3              0.859000       1.045777
                         16       1    1fx2y             0.859000       2.338428
                         16       1    1fx2z             0.859000       2.338428
                         16       1    1fxy2             0.859000       2.338428
                         16       1    1fxyz             0.859000       4.050277
                         16       1    1fxz2             0.859000       2.338428
                         16       1    1fy3              0.859000       1.045777
                         16       1    1fy2z             0.859000       2.338428
                         16       1    1fyz2             0.859000       2.338428
                         16       1    1fz3              0.859000       1.045777

                         17       1    1gx4              1.846000       6.005824
                         17       1    1gx3y             1.846000      15.889916
                         17       1    1gx3z             1.846000      15.889916
                         17       1    1gx2y2            1.846000      20.513794
                         17       1    1gx2yz            1.846000      35.530933
                         17       1    1gx2z2            1.846000      20.513794
                         17       1    1gxy3             1.846000      15.889916
                         17       1    1gxy2z            1.846000      35.530933
                         17       1    1gxyz2            1.846000      35.530933
                         17       1    1gxz3             1.846000      15.889916
                         17       1    1gy4              1.846000       6.005824
                         17       1    1gy3z             1.846000      15.889916
                         17       1    1gy2z2            1.846000      20.513794
                         17       1    1gyz3             1.846000      15.889916
                         17       1    1gz4              1.846000       6.005824

     RI Auxiliary Basis Set                                                RI-5Z

       Number of orbital shell sets:                                          38
       Number of orbital shells:                                              38
       Number of primitive Cartesian functions:                               38
       Number of Cartesian basis functions:                                  259
       Number of spherical basis functions:                                  180
       Norm type:                                                              2

       Normalised Cartesian orbitals:

                        Set   Shell   Orbital            Exponent    Coefficient

                          1       1    1s              488.561000      74.062640

                          2       1    1s              105.279000      23.424288

                          3       1    1s               28.708200       8.839233

                          4       1    1s               14.825500       5.384769

                          5       1    1s                5.831540       2.674530

                          6       1    1s                3.595370       1.860878

                          7       1    1s                1.940030       1.171565

                          8       1    1s                1.058590       0.743800

                          9       1    1s                0.474911       0.407727

                         10       1    1s                0.251005       0.252739

                         11       1    1px              94.256600     418.629472
                         11       1    1py              94.256600     418.629472
                         11       1    1pz              94.256600     418.629472

                         12       1    1px              25.465100      81.540209
                         12       1    1py              25.465100      81.540209
                         12       1    1pz              25.465100      81.540209

                         13       1    1px              11.049300      28.714982
                         13       1    1py              11.049300      28.714982
                         13       1    1pz              11.049300      28.714982

                         14       1    1px               4.708760       9.887199
                         14       1    1py               4.708760       9.887199
                         14       1    1pz               4.708760       9.887199

                         15       1    1px               2.756880       5.063635
                         15       1    1py               2.756880       5.063635
                         15       1    1pz               2.756880       5.063635

                         16       1    1px               1.274280       1.929839
                         16       1    1py               1.274280       1.929839
                         16       1    1pz               1.274280       1.929839

                         17       1    1px               0.696641       0.907197
                         17       1    1py               0.696641       0.907197
                         17       1    1pz               0.696641       0.907197

                         18       1    1px               0.416519       0.476962
                         18       1    1py               0.416519       0.476962
                         18       1    1pz               0.416519       0.476962

                         19       1    1dx2             21.988200     367.486504
                         19       1    1dxy             21.988200     636.505295
                         19       1    1dxz             21.988200     636.505295
                         19       1    1dy2             21.988200     367.486504
                         19       1    1dyz             21.988200     636.505295
                         19       1    1dz2             21.988200     367.486504

                         20       1    1dx2              7.274420      53.034271
                         20       1    1dxy              7.274420      91.858053
                         20       1    1dxz              7.274420      91.858053
                         20       1    1dy2              7.274420      53.034271
                         20       1    1dyz              7.274420      91.858053
                         20       1    1dz2              7.274420      53.034271

                         21       1    1dx2              4.518780      23.051360
                         21       1    1dxy              4.518780      39.926127
                         21       1    1dxz              4.518780      39.926127
                         21       1    1dy2              4.518780      23.051360
                         21       1    1dyz              4.518780      39.926127
                         21       1    1dz2              4.518780      23.051360

                         22       1    1dx2              2.719410       9.478512
                         22       1    1dxy              2.719410      16.417264
                         22       1    1dxz              2.719410      16.417264
                         22       1    1dy2              2.719410       9.478512
                         22       1    1dyz              2.719410      16.417264
                         22       1    1dz2              2.719410       9.478512

                         23       1    1dx2              1.442130       3.123685
                         23       1    1dxy              1.442130       5.410380
                         23       1    1dxz              1.442130       5.410380
                         23       1    1dy2              1.442130       3.123685
                         23       1    1dyz              1.442130       5.410380
                         23       1    1dz2              1.442130       3.123685

                         24       1    1dx2              0.719024       0.924082
                         24       1    1dxy              0.719024       1.600557
                         24       1    1dxz              0.719024       1.600557
                         24       1    1dy2              0.719024       0.924082
                         24       1    1dyz              0.719024       1.600557
                         24       1    1dz2              0.719024       0.924082

                         25       1    1dx2              0.303063       0.203747
                         25       1    1dxy              0.303063       0.352901
                         25       1    1dxz              0.303063       0.352901
                         25       1    1dy2              0.303063       0.203747
                         25       1    1dyz              0.303063       0.352901
                         25       1    1dz2              0.303063       0.203747

                         26       1    1fx3             14.098700     567.031722
                         26       1    1fx2y            14.098700    1267.921477
                         26       1    1fx2z            14.098700    1267.921477
                         26       1    1fxy2            14.098700    1267.921477
                         26       1    1fxyz            14.098700    2196.104418
                         26       1    1fxz2            14.098700    1267.921477
                         26       1    1fy3             14.098700     567.031722
                         26       1    1fy2z            14.098700    1267.921477
                         26       1    1fyz2            14.098700    1267.921477
                         26       1    1fz3             14.098700     567.031722

                         27       1    1fx3              6.442910      97.361912
                         27       1    1fx2y             6.442910     217.707854
                         27       1    1fx2z             6.442910     217.707854
                         27       1    1fxy2             6.442910     217.707854
                         27       1    1fxyz             6.442910     377.081065
                         27       1    1fxz2             6.442910     217.707854
                         27       1    1fy3              6.442910      97.361912
                         27       1    1fy2z             6.442910     217.707854
                         27       1    1fyz2             6.442910     217.707854
                         27       1    1fz3              6.442910      97.361912

                         28       1    1fx3              3.721040      28.310609
                         28       1    1fx2y             3.721040      63.304446
                         28       1    1fx2z             3.721040      63.304446
                         28       1    1fxy2             3.721040      63.304446
                         28       1    1fxyz             3.721040     109.646517
                         28       1    1fxz2             3.721040      63.304446
                         28       1    1fy3              3.721040      28.310609
                         28       1    1fy2z             3.721040      63.304446
                         28       1    1fyz2             3.721040      63.304446
                         28       1    1fz3              3.721040      28.310609

                         29       1    1fx3              2.093740       7.763019
                         29       1    1fx2y             2.093740      17.358638
                         29       1    1fx2z             2.093740      17.358638
                         29       1    1fxy2             2.093740      17.358638
                         29       1    1fxyz             2.093740      30.066042
                         29       1    1fxz2             2.093740      17.358638
                         29       1    1fy3              2.093740       7.763019
                         29       1    1fy2z             2.093740      17.358638
                         29       1    1fyz2             2.093740      17.358638
                         29       1    1fz3              2.093740       7.763019

                         30       1    1fx3              1.185310       2.158124
                         30       1    1fx2y             1.185310       4.825711
                         30       1    1fx2z             1.185310       4.825711
                         30       1    1fxy2             1.185310       4.825711
                         30       1    1fxyz             1.185310       8.358377
                         30       1    1fxz2             1.185310       4.825711
                         30       1    1fy3              1.185310       2.158124
                         30       1    1fy2z             1.185310       4.825711
                         30       1    1fyz2             1.185310       4.825711
                         30       1    1fz3              1.185310       2.158124

                         31       1    1fx3              0.621013       0.504001
                         31       1    1fx2y             0.621013       1.126979
                         31       1    1fx2z             0.621013       1.126979
                         31       1    1fxy2             0.621013       1.126979
                         31       1    1fxyz             0.621013       1.951986
                         31       1    1fxz2             0.621013       1.126979
                         31       1    1fy3              0.621013       0.504001
                         31       1    1fy2z             0.621013       1.126979
                         31       1    1fyz2             0.621013       1.126979
                         31       1    1fz3              0.621013       0.504001

                         32       1    1gx4              7.014070     235.968042
                         32       1    1gx3y             7.014070     624.312756
                         32       1    1gx3z             7.014070     624.312756
                         32       1    1gx2y2            7.014070     805.984303
                         32       1    1gx2yz            7.014070    1396.005762
                         32       1    1gx2z2            7.014070     805.984303
                         32       1    1gxy3             7.014070     624.312756
                         32       1    1gxy2z            7.014070    1396.005762
                         32       1    1gxyz2            7.014070    1396.005762
                         32       1    1gxz3             7.014070     624.312756
                         32       1    1gy4              7.014070     235.968042
                         32       1    1gy3z             7.014070     624.312756
                         32       1    1gy2z2            7.014070     805.984303
                         32       1    1gyz3             7.014070     624.312756
                         32       1    1gz4              7.014070     235.968042

                         33       1    1gx4              3.883140      46.418255
                         33       1    1gx3y             3.883140     122.811159
                         33       1    1gx3z             3.883140     122.811159
                         33       1    1gx2y2            3.883140     158.548524
                         33       1    1gx2yz            3.883140     274.614099
                         33       1    1gx2z2            3.883140     158.548524
                         33       1    1gxy3             3.883140     122.811159
                         33       1    1gxy2z            3.883140     274.614099
                         33       1    1gxyz2            3.883140     274.614099
                         33       1    1gxz3             3.883140     122.811159
                         33       1    1gy4              3.883140      46.418255
                         33       1    1gy3z             3.883140     122.811159
                         33       1    1gy2z2            3.883140     158.548524
                         33       1    1gyz3             3.883140     122.811159
                         33       1    1gz4              3.883140      46.418255

                         34       1    1gx4              2.038250       7.886665
                         34       1    1gx3y             2.038250      20.866155
                         34       1    1gx3z             2.038250      20.866155
                         34       1    1gx2y2            2.038250      26.938091
                         34       1    1gx2yz            2.038250      46.658142
                         34       1    1gx2z2            2.038250      26.938091
                         34       1    1gxy3             2.038250      20.866155
                         34       1    1gxy2z            2.038250      46.658142
                         34       1    1gxyz2            2.038250      46.658142
                         34       1    1gxz3             2.038250      20.866155
                         34       1    1gy4              2.038250       7.886665
                         34       1    1gy3z             2.038250      20.866155
                         34       1    1gy2z2            2.038250      26.938091
                         34       1    1gyz3             2.038250      20.866155
                         34       1    1gz4              2.038250       7.886665

                         35       1    1gx4              1.007810       1.136912
                         35       1    1gx3y             1.007810       3.007986
                         35       1    1gx3z             1.007810       3.007986
                         35       1    1gx2y2            1.007810       3.883293
                         35       1    1gx2yz            1.007810       6.726061
                         35       1    1gx2z2            1.007810       3.883293
                         35       1    1gxy3             1.007810       3.007986
                         35       1    1gxy2z            1.007810       6.726061
                         35       1    1gxyz2            1.007810       6.726061
                         35       1    1gxz3             1.007810       3.007986
                         35       1    1gy4              1.007810       1.136912
                         35       1    1gy3z             1.007810       3.007986
                         35       1    1gy2z2            1.007810       3.883293
                         35       1    1gyz3             1.007810       3.007986
                         35       1    1gz4              1.007810       1.136912

                         36       1    1hx5              5.427550     181.053374
                         36       1    1hx4y             5.427550     543.160123
                         36       1    1hx4z             5.427550     543.160123
                         36       1    1hx3y2            5.427550     829.690793
                         36       1    1hx3yz            5.427550    1437.066608
                         36       1    1hx3z2            5.427550     829.690793
                         36       1    1hx2y3            5.427550     829.690793
                         36       1    1hx2y2z           5.427550    1855.245014
                         36       1    1hx2yz2           5.427550    1855.245014
                         36       1    1hx2z3            5.427550     829.690793
                         36       1    1hxy4             5.427550     543.160123
                         36       1    1hxy3z            5.427550    1437.066608
                         36       1    1hxy2z2           5.427550    1855.245014
                         36       1    1hxyz3            5.427550    1437.066608
                         36       1    1hxz4             5.427550     543.160123
                         36       1    1hy5              5.427550     181.053374
                         36       1    1hy4z             5.427550     543.160123
                         36       1    1hy3z2            5.427550     829.690793
                         36       1    1hy2z3            5.427550     829.690793
                         36       1    1hyz4             5.427550     543.160123
                         36       1    1hz5              5.427550     181.053374

                         37       1    1hx5              3.223120      33.284552
                         37       1    1hx4y             3.223120      99.853655
                         37       1    1hx4z             3.223120      99.853655
                         37       1    1hx3y2            3.223120     152.528977
                         37       1    1hx3yz            3.223120     264.187938
                         37       1    1hx3z2            3.223120     152.528977
                         37       1    1hx2y3            3.223120     152.528977
                         37       1    1hx2y2z           3.223120     341.065161
                         37       1    1hx2yz2           3.223120     341.065161
                         37       1    1hx2z3            3.223120     152.528977
                         37       1    1hxy4             3.223120      99.853655
                         37       1    1hxy3z            3.223120     264.187938
                         37       1    1hxy2z2           3.223120     341.065161
                         37       1    1hxyz3            3.223120     264.187938
                         37       1    1hxz4             3.223120      99.853655
                         37       1    1hy5              3.223120      33.284552
                         37       1    1hy4z             3.223120      99.853655
                         37       1    1hy3z2            3.223120     152.528977
                         37       1    1hy2z3            3.223120     152.528977
                         37       1    1hyz4             3.223120      99.853655
                         37       1    1hz5              3.223120      33.284552

                         38       1    1hx5              1.724010       4.356106
                         38       1    1hx4y             1.724010      13.068318
                         38       1    1hx4z             1.724010      13.068318
                         38       1    1hx3y2            1.724010      19.962186
                         38       1    1hx3yz            1.724010      34.575521
                         38       1    1hx3z2            1.724010      19.962186
                         38       1    1hx2y3            1.724010      19.962186
                         38       1    1hx2y2z           1.724010      44.636805
                         38       1    1hx2yz2           1.724010      44.636805
                         38       1    1hx2z3            1.724010      19.962186
                         38       1    1hxy4             1.724010      13.068318
                         38       1    1hxy3z            1.724010      34.575521
                         38       1    1hxy2z2           1.724010      44.636805
                         38       1    1hxyz3            1.724010      34.575521
                         38       1    1hxz4             1.724010      13.068318
                         38       1    1hy5              1.724010       4.356106
                         38       1    1hy4z             1.724010      13.068318
                         38       1    1hy3z2            1.724010      19.962186
                         38       1    1hy2z3            1.724010      19.962186
                         38       1    1hyz4             1.724010      13.068318
                         38       1    1hz5              1.724010       4.356106

     The atoms of this atomic kind are PAW atoms (GAPW):
       Hard Gaussian function radius:                                      1.512
       Rho0 radius:                                                        1.512
       Maximum GTO radius used for PAW projector construction:            24.566

     GAPW Soft Basis Set                                          def2-QZVP_soft

       Number of orbital shell sets:                                          17
       Number of orbital shells:                                              17
       Number of primitive Cartesian functions:                               13
       Number of Cartesian basis functions:                                   72
       Number of spherical basis functions:                                   57
       Norm type:                                                              2

       Normalised Cartesian orbitals:

                        Set   Shell   Orbital            Exponent    Coefficient

                          1       1    1s         

                          2       1    1s         

                          3       1    1s         

                          4       1    1s         

                          5       1    1s                1.325535       0.880448

                          6       1    1s                0.518772       0.435655

                          7       1    1s                0.197727       0.211329

                          8       1    1px               2.079242       2.436773
                          8       1    1py               2.079242       2.436773
                          8       1    1pz               2.079242       2.436773

                          9       1    1px               0.842824       1.151095
                          9       1    1py               0.842824       1.151095
                          9       1    1pz               0.842824       1.151095

                         10       1    1px               0.336177       0.364880
                         10       1    1py               0.336177       0.364880
                         10       1    1pz               0.336177       0.364880

                         11       1    1px               0.128640       0.109815
                         11       1    1py               0.128640       0.109815
                         11       1    1pz               0.128640       0.109815

                         12       1    1dx2              3.775000      16.827288
                         12       1    1dxy              3.775000      29.145718
                         12       1    1dxz              3.775000      29.145718
                         12       1    1dy2              3.775000      16.827288
                         12       1    1dyz              3.775000      29.145718
                         12       1    1dz2              3.775000      16.827288

                         13       1    1dx2              1.300000       2.605016
                         13       1    1dxy              1.300000       4.512019
                         13       1    1dxz              1.300000       4.512019
                         13       1    1dy2              1.300000       2.605016
                         13       1    1dyz              1.300000       4.512019
                         13       1    1dz2              1.300000       2.605016

                         14       1    1dx2              0.444000       0.397493
                         14       1    1dxy              0.444000       0.688478
                         14       1    1dxz              0.444000       0.688478
                         14       1    1dy2              0.444000       0.397493
                         14       1    1dyz              0.444000       0.688478
                         14       1    1dz2              0.444000       0.397493

                         15       1    1fx3              2.666000      13.370258
                         15       1    1fx2y             2.666000      29.896805
                         15       1    1fx2z             2.666000      29.896805
                         15       1    1fxy2             2.666000      29.896805
                         15       1    1fxyz             2.666000      51.782785
                         15       1    1fxz2             2.666000      29.896805
                         15       1    1fy3              2.666000      13.370258
                         15       1    1fy2z             2.666000      29.896805
                         15       1    1fyz2             2.666000      29.896805
                         15       1    1fz3              2.666000      13.370258

                         16       1    1fx3              0.859000       1.045777
                         16       1    1fx2y             0.859000       2.338428
                         16       1    1fx2z             0.859000       2.338428
                         16       1    1fxy2             0.859000       2.338428
                         16       1    1fxyz             0.859000       4.050277
                         16       1    1fxz2             0.859000       2.338428
                         16       1    1fy3              0.859000       1.045777
                         16       1    1fy2z             0.859000       2.338428
                         16       1    1fyz2             0.859000       2.338428
                         16       1    1fz3              0.859000       1.045777

                         17       1    1gx4              1.846000       6.005824
                         17       1    1gx3y             1.846000      15.889916
                         17       1    1gx3z             1.846000      15.889916
                         17       1    1gx2y2            1.846000      20.513794
                         17       1    1gx2yz            1.846000      35.530933
                         17       1    1gx2z2            1.846000      20.513794
                         17       1    1gxy3             1.846000      15.889916
                         17       1    1gxy2z            1.846000      35.530933
                         17       1    1gxyz2            1.846000      35.530933
                         17       1    1gxz3             1.846000      15.889916
                         17       1    1gy4              1.846000       6.005824
                         17       1    1gy3z             1.846000      15.889916
                         17       1    1gy2z2            1.846000      20.513794
                         17       1    1gyz3             1.846000      15.889916
                         17       1    1gz4              1.846000       6.005824

     AE Potential information for                                            ALL

       Description:                                       All-electron potential
                                          Krack, Parrinello, PCCP 2, 2105 (2000)

       Gaussian exponent of the core charge distribution:               8.154466
       Electronic configuration (s p d ...):                           4   4   0

  2. Atomic kind: C                                     Number of atoms:       1

     Orbital Basis Set                                                 def2-QZVP

       Number of orbital shell sets:                                          17
       Number of orbital shells:                                              17
       Number of primitive Cartesian functions:                               29
       Number of Cartesian basis functions:                                   72
       Number of spherical basis functions:                                   57
       Norm type:                                                              2

       Normalised Cartesian orbitals:

                        Set   Shell   Orbital            Exponent    Coefficient

                          1       1    1s            67025.071029       0.210754
                                                     10039.986538       0.394420
                                                      2284.931691       0.681489
                                                       647.141221       1.107503
                                                       211.094723       1.690216
                                                        76.177644       2.371646
                                                        29.633839       2.879905
                                                        12.187785       2.751196

                          2       1    1s               53.026006       1.279547
                                                        15.258503       5.110319

                          3       1    1s                5.240396       2.468500

                          4       1    1s                2.290502       1.326961

                          5       1    1s                0.696733       0.543513

                          6       1    1s                0.275993       0.271384

                          7       1    1s                0.107399       0.133709

                          8       1    1px             105.125551       1.197879
                                                        24.884461       1.548521
                                                         7.863723       1.667474
                                                         2.840700       1.549652
                                                         1.122714       1.157594
                          8       1    1py             105.125551       1.197879
                                                        24.884461       1.548521
                                                         7.863723       1.667474
                                                         2.840700       1.549652
                                                         1.122714       1.157594
                          8       1    1pz             105.125551       1.197879
                                                        24.884461       1.548521
                                                         7.863723       1.667474
                                                         2.840700       1.549652
                                                         1.122714       1.157594

                          9       1    1px               0.460507       0.540736
                          9       1    1py               0.460507       0.540736
                          9       1    1pz               0.460507       0.540736

                         10       1    1px               0.189375       0.178071
                         10       1    1py               0.189375       0.178071
                         10       1    1pz               0.189375       0.178071

                         11       1    1px               0.075984       0.056865
                         11       1    1py               0.075984       0.056865
                         11       1    1pz               0.075984       0.056865

                         12       1    1dx2              1.848000       4.821009
                         12       1    1dxy              1.848000       8.350232
                         12       1    1dxz              1.848000       8.350232
                         12       1    1dy2              1.848000       4.821009
                         12       1    1dyz              1.848000       8.350232
                         12       1    1dz2              1.848000       4.821009

                         13       1    1dx2              0.649000       0.772392
                         13       1    1dxy              0.649000       1.337822
                         13       1    1dxz              0.649000       1.337822
                         13       1    1dy2              0.649000       0.772392
                         13       1    1dyz              0.649000       1.337822
                         13       1    1dz2              0.649000       0.772392

                         14       1    1dx2              0.228000       0.123821
                         14       1    1dxy              0.228000       0.214465
                         14       1    1dxz              0.228000       0.214465
                         14       1    1dy2              0.228000       0.123821
                         14       1    1dyz              0.228000       0.214465
                         14       1    1dz2              0.228000       0.123821

                         15       1    1fx3              1.419000       3.235302
                         15       1    1fx2y             1.419000       7.234355
                         15       1    1fx2z             1.419000       7.234355
                         15       1    1fxy2             1.419000       7.234355
                         15       1    1fxyz             1.419000      12.530271
                         15       1    1fxz2             1.419000       7.234355
                         15       1    1fy3              1.419000       3.235302
                         15       1    1fy2z             1.419000       7.234355
                         15       1    1fyz2             1.419000       7.234355
                         15       1    1fz3              1.419000       3.235302

                         16       1    1fx3              0.485000       0.288984
                         16       1    1fx2y             0.485000       0.646187
                         16       1    1fx2z             0.485000       0.646187
                         16       1    1fxy2             0.485000       0.646187
                         16       1    1fxyz             0.485000       1.119229
                         16       1    1fxz2             0.485000       0.646187
                         16       1    1fy3              0.485000       0.288984
                         16       1    1fy2z             0.485000       0.646187
                         16       1    1fyz2             0.485000       0.646187
                         16       1    1fz3              0.485000       0.288984

                         17       1    1gx4              1.011000       1.146835
                         17       1    1gx3y             1.011000       3.034241
                         17       1    1gx3z             1.011000       3.034241
                         17       1    1gx2y2            1.011000       3.917189
                         17       1    1gx2yz            1.011000       6.784770
                         17       1    1gx2z2            1.011000       3.917189
                         17       1    1gxy3             1.011000       3.034241
                         17       1    1gxy2z            1.011000       6.784770
                         17       1    1gxyz2            1.011000       6.784770
                         17       1    1gxz3             1.011000       3.034241
                         17       1    1gy4              1.011000       1.146835
                         17       1    1gy3z             1.011000       3.034241
                         17       1    1gy2z2            1.011000       3.917189
                         17       1    1gyz3             1.011000       3.034241
                         17       1    1gz4              1.011000       1.146835

     RI Auxiliary Basis Set                                                RI-5Z

       Number of orbital shell sets:                                          39
       Number of orbital shells:                                              39
       Number of primitive Cartesian functions:                               39
       Number of Cartesian basis functions:                                  287
       Number of spherical basis functions:                                  193
       Norm type:                                                              2

       Normalised Cartesian orbitals:

                        Set   Shell   Orbital            Exponent    Coefficient

                          1       1    1s              247.064000      44.413724

                          2       1    1s               53.400400      14.078892

                          3       1    1s               13.932000       5.139492

                          4       1    1s                6.151790       2.783949

                          5       1    1s                2.838270       1.558477

                          6       1    1s                1.697980       1.060131

                          7       1    1s                0.944763       0.682971

                          8       1    1s                0.555806       0.458778

                          9       1    1s                0.257433       0.257578

                         10       1    1s                0.118498       0.143944

                         11       1    1px              51.517500     196.735876
                         11       1    1py              51.517500     196.735876
                         11       1    1pz              51.517500     196.735876

                         12       1    1px              14.097200      38.936433
                         12       1    1py              14.097200      38.936433
                         12       1    1pz              14.097200      38.936433

                         13       1    1px               5.053190      10.799338
                         13       1    1py               5.053190      10.799338
                         13       1    1pz               5.053190      10.799338

                         14       1    1px               2.540790       4.572472
                         14       1    1py               2.540790       4.572472
                         14       1    1pz               2.540790       4.572472

                         15       1    1px               1.420590       2.210681
                         15       1    1py               1.420590       2.210681
                         15       1    1pz               1.420590       2.210681

                         16       1    1px               0.705145       0.921060
                         16       1    1py               0.705145       0.921060
                         16       1    1pz               0.705145       0.921060

                         17       1    1px               0.353612       0.388686
                         17       1    1py               0.353612       0.388686
                         17       1    1pz               0.353612       0.388686

                         18       1    1px               0.223793       0.219406
                         18       1    1py               0.223793       0.219406
                         18       1    1pz               0.223793       0.219406

                         19       1    1dx2             12.844800     143.443975
                         19       1    1dxy             12.844800     248.452253
                         19       1    1dxz             12.844800     248.452253
                         19       1    1dy2             12.844800     143.443975
                         19       1    1dyz             12.844800     248.452253
                         19       1    1dz2             12.844800     143.443975

                         20       1    1dx2              4.999910      27.516506
                         20       1    1dxy              4.999910      47.659986
                         20       1    1dxz              4.999910      47.659986
                         20       1    1dy2              4.999910      27.516506
                         20       1    1dyz              4.999910      47.659986
                         20       1    1dz2              4.999910      27.516506

                         21       1    1dx2              3.000150      11.256663
                         21       1    1dxy              3.000150      19.497112
                         21       1    1dxz              3.000150      19.497112
                         21       1    1dy2              3.000150      11.256663
                         21       1    1dyz              3.000150      19.497112
                         21       1    1dz2              3.000150      11.256663

                         22       1    1dx2              1.639980       3.911803
                         22       1    1dxy              1.639980       6.775441
                         22       1    1dxz              1.639980       6.775441
                         22       1    1dy2              1.639980       3.911803
                         22       1    1dyz              1.639980       6.775441
                         22       1    1dz2              1.639980       3.911803

                         23       1    1dx2              0.759964       1.018116
                         23       1    1dxy              0.759964       1.763429
                         23       1    1dxz              0.759964       1.763429
                         23       1    1dy2              0.759964       1.018116
                         23       1    1dyz              0.759964       1.763429
                         23       1    1dz2              0.759964       1.018116

                         24       1    1dx2              0.413013       0.350224
                         24       1    1dxy              0.413013       0.606606
                         24       1    1dxz              0.413013       0.606606
                         24       1    1dy2              0.413013       0.350224
                         24       1    1dyz              0.413013       0.606606
                         24       1    1dz2              0.413013       0.350224

                         25       1    1dx2              0.211749       0.108792
                         25       1    1dxy              0.211749       0.188433
                         25       1    1dxz              0.211749       0.188433
                         25       1    1dy2              0.211749       0.108792
                         25       1    1dyz              0.211749       0.188433
                         25       1    1dz2              0.211749       0.108792

                         26       1    1fx3              7.559750     139.507056
                         26       1    1fx2y             7.559750     311.947262
                         26       1    1fx2z             7.559750     311.947262
                         26       1    1fxy2             7.559750     311.947262
                         26       1    1fxyz             7.559750     540.308506
                         26       1    1fxz2             7.559750     311.947262
                         26       1    1fy3              7.559750     139.507056
                         26       1    1fy2z             7.559750     311.947262
                         26       1    1fyz2             7.559750     311.947262
                         26       1    1fz3              7.559750     139.507056

                         27       1    1fx3              3.116540      18.998444
                         27       1    1fx2y             3.116540      42.481813
                         27       1    1fx2z             3.116540      42.481813
                         27       1    1fxy2             3.116540      42.481813
                         27       1    1fxyz             3.116540      73.580658
                         27       1    1fxz2             3.116540      42.481813
                         27       1    1fy3              3.116540      18.998444
                         27       1    1fy2z             3.116540      42.481813
                         27       1    1fyz2             3.116540      42.481813
                         27       1    1fz3              3.116540      18.998444

                         28       1    1fx3              2.054360       7.438351
                         28       1    1fx2y             2.054360      16.632659
                         28       1    1fx2z             2.054360      16.632659
                         28       1    1fxy2             2.054360      16.632659
                         28       1    1fxyz             2.054360      28.808611
                         28       1    1fxz2             2.054360      16.632659
                         28       1    1fy3              2.054360       7.438351
                         28       1    1fy2z             2.054360      16.632659
                         28       1    1fyz2             2.054360      16.632659
                         28       1    1fz3              2.054360       7.438351

                         29       1    1fx3              1.114180       1.877604
                         29       1    1fx2y             1.114180       4.198450
                         29       1    1fx2z             1.114180       4.198450
                         29       1    1fxy2             1.114180       4.198450
                         29       1    1fxyz             1.114180       7.271929
                         29       1    1fxz2             1.114180       4.198450
                         29       1    1fy3              1.114180       1.877604
                         29       1    1fy2z             1.114180       4.198450
                         29       1    1fyz2             1.114180       4.198450
                         29       1    1fz3              1.114180       1.877604

                         30       1    1fx3              0.603184       0.472027
                         30       1    1fx2y             0.603184       1.055484
                         30       1    1fx2z             0.603184       1.055484
                         30       1    1fxy2             0.603184       1.055484
                         30       1    1fxyz             0.603184       1.828151
                         30       1    1fxz2             0.603184       1.055484
                         30       1    1fy3              0.603184       0.472027
                         30       1    1fy2z             0.603184       1.055484
                         30       1    1fyz2             0.603184       1.055484
                         30       1    1fz3              0.603184       0.472027

                         31       1    1fx3              0.334627       0.125377
                         31       1    1fx2y             0.334627       0.280351
                         31       1    1fx2z             0.334627       0.280351
                         31       1    1fxy2             0.334627       0.280351
                         31       1    1fxyz             0.334627       0.485582
                         31       1    1fxz2             0.334627       0.280351
                         31       1    1fy3              0.334627       0.125377
                         31       1    1fy2z             0.334627       0.280351
                         31       1    1fyz2             0.334627       0.280351
                         31       1    1fz3              0.334627       0.125377

                         32       1    1gx4              4.244100      59.271490
                         32       1    1gx3y             4.244100     156.817624
                         32       1    1gx3z             4.244100     156.817624
                         32       1    1gx2y2            4.244100     202.450681
                         32       1    1gx2yz            4.244100     350.654866
                         32       1    1gx2z2            4.244100     202.450681
                         32       1    1gxy3             4.244100     156.817624
                         32       1    1gxy2z            4.244100     350.654866
                         32       1    1gxyz2            4.244100     350.654866
                         32       1    1gxz3             4.244100     156.817624
                         32       1    1gy4              4.244100      59.271490
                         32       1    1gy3z             4.244100     156.817624
                         32       1    1gy2z2            4.244100     202.450681
                         32       1    1gyz3             4.244100     156.817624
                         32       1    1gz4              4.244100      59.271490

                         33       1    1gx4              2.155990       9.203732
                         33       1    1gx3y             2.155990      24.350786
                         33       1    1gx3z             2.155990      24.350786
                         33       1    1gx2y2            2.155990      31.436730
                         33       1    1gx2yz            2.155990      54.450013
                         33       1    1gx2z2            2.155990      31.436730
                         33       1    1gxy3             2.155990      24.350786
                         33       1    1gxy2z            2.155990      54.450013
                         33       1    1gxyz2            2.155990      54.450013
                         33       1    1gxz3             2.155990      24.350786
                         33       1    1gy4              2.155990       9.203732
                         33       1    1gy3z             2.155990      24.350786
                         33       1    1gy2z2            2.155990      31.436730
                         33       1    1gyz3             2.155990      24.350786
                         33       1    1gz4              2.155990       9.203732

                         34       1    1gx4              1.023150       1.185137
                         34       1    1gx3y             1.023150       3.135578
                         34       1    1gx3z             1.023150       3.135578
                         34       1    1gx2y2            1.023150       4.048013
                         34       1    1gx2yz            1.023150       7.011365
                         34       1    1gx2z2            1.023150       4.048013
                         34       1    1gxy3             1.023150       3.135578
                         34       1    1gxy2z            1.023150       7.011365
                         34       1    1gxyz2            1.023150       7.011365
                         34       1    1gxz3             1.023150       3.135578
                         34       1    1gy4              1.023150       1.185137
                         34       1    1gy3z             1.023150       3.135578
                         34       1    1gy2z2            1.023150       4.048013
                         34       1    1gyz3             1.023150       3.135578
                         34       1    1gz4              1.023150       1.185137

                         35       1    1gx4              0.593235       0.264734
                         35       1    1gx3y             0.593235       0.700419
                         35       1    1gx3z             0.593235       0.700419
                         35       1    1gx2y2            0.593235       0.904237
                         35       1    1gx2yz            0.593235       1.566185
                         35       1    1gx2z2            0.593235       0.904237
                         35       1    1gxy3             0.593235       0.700419
                         35       1    1gxy2z            0.593235       1.566185
                         35       1    1gxyz2            0.593235       1.566185
                         35       1    1gxz3             0.593235       0.700419
                         35       1    1gy4              0.593235       0.264734
                         35       1    1gy3z             0.593235       0.700419
                         35       1    1gy2z2            0.593235       0.904237
                         35       1    1gyz3             0.593235       0.700419
                         35       1    1gz4              0.593235       0.264734

                         36       1    1hx5              2.702190      18.768121
                         36       1    1hx4y             2.702190      56.304362
                         36       1    1hx4z             2.702190      56.304362
                         36       1    1hx3y2            2.702190      86.006333
                         36       1    1hx3yz            2.702190     148.967339
                         36       1    1hx3z2            2.702190      86.006333
                         36       1    1hx2y3            2.702190      86.006333
                         36       1    1hx2y2z           2.702190     192.316007
                         36       1    1hx2yz2           2.702190     192.316007
                         36       1    1hx2z3            2.702190      86.006333
                         36       1    1hxy4             2.702190      56.304362
                         36       1    1hxy3z            2.702190     148.967339
                         36       1    1hxy2z2           2.702190     192.316007
                         36       1    1hxyz3            2.702190     148.967339
                         36       1    1hxz4             2.702190      56.304362
                         36       1    1hy5              2.702190      18.768121
                         36       1    1hy4z             2.702190      56.304362
                         36       1    1hy3z2            2.702190      86.006333
                         36       1    1hy2z3            2.702190      86.006333
                         36       1    1hyz4             2.702190      56.304362
                         36       1    1hz5              2.702190      18.768121

                         37       1    1hx5              1.508080       2.819833
                         37       1    1hx4y             1.508080       8.459499
                         37       1    1hx4z             1.508080       8.459499
                         37       1    1hx3y2            1.508080      12.922099
                         37       1    1hx3yz            1.508080      22.381731
                         37       1    1hx3z2            1.508080      12.922099
                         37       1    1hx2y3            1.508080      12.922099
                         37       1    1hx2y2z           1.508080      28.894691
                         37       1    1hx2yz2           1.508080      28.894691
                         37       1    1hx2z3            1.508080      12.922099
                         37       1    1hxy4             1.508080       8.459499
                         37       1    1hxy3z            1.508080      22.381731
                         37       1    1hxy2z2           1.508080      28.894691
                         37       1    1hxyz3            1.508080      22.381731
                         37       1    1hxz4             1.508080       8.459499
                         37       1    1hy5              1.508080       2.819833
                         37       1    1hy4z             1.508080       8.459499
                         37       1    1hy3z2            1.508080      12.922099
                         37       1    1hy2z3            1.508080      12.922099
                         37       1    1hyz4             1.508080       8.459499
                         37       1    1hz5              1.508080       2.819833

                         38       1    1hx5              0.860125       0.454642
                         38       1    1hx4y             0.860125       1.363925
                         38       1    1hx4z             0.860125       1.363925
                         38       1    1hx3y2            0.860125       2.083430
                         38       1    1hx3yz            0.860125       3.608607
                         38       1    1hx3z2            0.860125       2.083430
                         38       1    1hx2y3            0.860125       2.083430
                         38       1    1hx2y2z           0.860125       4.658691
[...]
         868 -0.94335454350018144      ( -2.1043928489010291E-002,  8.6066939329870015E-002)
         869 -0.95071262350450036      ( -2.1176733568868518E-002,  8.6332492675589040E-002)
         870 -0.95818141405543900      ( -2.1310771616083031E-002,  8.6598198261733608E-002)
         871 -0.96576347043855215      ( -2.1446048179232902E-002,  8.6864028283828804E-002)
         872 -0.97346142716965245      ( -2.1582568477106965E-002,  8.7129953889910669E-002)
         873 -0.98127800108974561      ( -2.1720337376478199E-002,  8.7395945140240988E-002)
         874 -0.98921599460618381      ( -2.1859359368729746E-002,  8.7661970965169381E-002)
         875 -0.99727829908815668      ( -2.1999638545278796E-002,  8.7927999121050107E-002)
 
 n_level_gw =           9
 AFTER evaluate_pade_function/get_z_and_m_value_pade
 energy_val = -0.16126214161207394     
 nparam_pade =           8
 omega_points_pade = ( -0.0000000000000000     , -9.9999999999999998E-013) ( -0.0000000000000000     , -3.9782473475931619E-002) ( -0.0000000000000000     , -8.2842712474619024E-002) ( -0.0000000000000000     ,-0.13363572758385980     ) ( -0.0000000000000000     ,-0.20000000000000004     ) ( -0.0000000000000000     ,-0.29932115253309782     ) ( -0.0000000000000000     ,-0.48284271247461907     ) ( -0.0000000000000000     ,-0.99727829908815668     )
 coeff_pade = ( -6.2884930237575793E-003,  1.4634204411275455E-013) ( -12.437289698292405     , -11.591157307294255     ) (  12.485165983587651     ,  11.741278614001166     ) (  3.7210842574704250E-002, -1.9217293911230554E-003) (-0.38242996273666463     , 0.10671351359452434     ) ( -2.2794406812210575     , -1.5196402988731597     ) (  1.1718087602532035     ,  2.6136503853581030     ) ( -1.8267810860750561E-003, -7.7975108775361276E-002)
 sigma_c_pade = ( 0.50652776247303244     , -8.3732432726428617E-004)
 z_value(n_level_gw) =  0.85698648714085124     
 m_value(n_level_gw) = -0.16687954244912559     
 level_energ_GW = -0.48976594571342397     
 
 
 n_level_gw =           9
 AFTER get_sigma_c_newton_pade
 vec_gw_energ(n_level_gw) =   1.3007747043298947     
 Eigenval_scf(n_level_gw_ref) =  -9.0736078540346750     
 nparam_pade =           8
 level_energ_GW = -0.48976594571342397     
 
  
  GW quasiparticle energies
  -------------------------
   
  The GW quasiparticle energies are calculated according to: 
  E_GW = E_SCF + Z * ( Sigc(E_SCF) + Sigx - vxc )
   
  The energy unit of the following table is eV.  Sigc_fit is a very conservative
  estimate of the statistical error of the fitting.
   
            MO      E_SCF       Sigc   Sigc_fit   Sigx-vxc          Z       E_GW
     2 ( occ )   -512.450     -2.845      0.000    -48.858      1.000   -564.153
     3 ( occ )   -273.716     -1.884      0.000    -35.401      1.000   -311.000
     4 ( occ )    -29.194      8.041      0.000    -11.964      1.000    -33.117
     5 ( occ )    -28.191      7.497      0.000    -11.508      1.000    -32.203
     6 ( occ )    -13.767      3.818      0.000     -7.894      1.000    -17.844
     7 ( occ )    -12.758      2.452      0.000     -6.320      1.000    -16.626
     8 ( occ )    -12.758      2.452      0.000     -6.320      1.000    -16.626
     9 ( occ )    -12.674      3.276      0.000     -7.402      1.000    -16.800
    10 ( occ )     -9.074      1.301      0.000     -5.470      1.000    -13.243
    11 ( occ )     -9.074      1.301      0.000     -5.470      1.000    -13.243
    12 ( vir )     -0.297     -1.358      0.000      4.231      1.000      2.575
    13 ( vir )     -0.272     -2.453      0.000      6.397      1.000      3.672
    14 ( vir )     -0.272     -2.453      0.000      6.397      1.000      3.672
    15 ( vir )      2.648     -0.640      0.000      2.672      1.000      4.680
    16 ( vir )      2.648     -0.640      0.000      2.672      1.000      4.680
    17 ( vir )      2.957     -0.608      0.000      2.776      1.000      5.126
    18 ( vir )      5.624     -2.206      0.000      5.337      1.000      8.755
    19 ( vir )      6.668     -1.562      0.000      4.380      1.000      9.487
    20 ( vir )      7.092     -0.956      0.000      3.650      1.000      9.785
    21 ( vir )      7.092     -0.956      0.000      3.650      1.000      9.785
   
  GW HOMO-LUMO gap (eV)                                                    15.82
  

  Total RI-RPA Time=                                                  386.309003
  RI-RPA energy  =                                             -1.10163285049381

  Total EXX Time=                                                      24.445971
  EXX energy  =                                               -21.55918486675442

 ENERGY| Total FORCE_EVAL ( QS ) energy (a.u.):             -188.784775129923787


 -------------------------------------------------------------------------------
 -                                                                             -
 -                                DBCSR STATISTICS                             -
 -                                                                             -
 -------------------------------------------------------------------------------
 COUNTER                                    TOTAL       BLAS       SMM       ACC
 flops    57 x    11 x    57               643302     100.0%      0.0%      0.0%
 flops    57 x    57 x    11               857736     100.0%      0.0%      0.0%
 flops    57 x   114 x    57              2222316     100.0%      0.0%      0.0%
 flops   114 x    57 x    57              2222316     100.0%      0.0%      0.0%
 flops   114 x   114 x    57              4444632     100.0%      0.0%      0.0%
 flops    57 x    57 x    57              4444632     100.0%      0.0%      0.0%
 flops   193 x   193 x   193            201293596     100.0%      0.0%      0.0%
 flops   193 x   193 x   180            375469920     100.0%      0.0%      0.0%
 flops   193 x   180 x   193            375469920     100.0%      0.0%      0.0%
 flops   180 x   193 x   193            375469920     100.0%      0.0%      0.0%
 flops   193 x   180 x   180            700358400     100.0%      0.0%      0.0%
 flops   180 x   193 x   180            700358400     100.0%      0.0%      0.0%
 flops   180 x   180 x   193            700358400     100.0%      0.0%      0.0%
 flops   180 x    57 x   193           1108900800     100.0%      0.0%      0.0%
 flops   180 x   180 x   180           1306368000     100.0%      0.0%      0.0%
 flops   180 x    57 x    57           1964995200     100.0%      0.0%      0.0%
 flops   180 x    57 x   180           2068416000     100.0%      0.0%      0.0%
 flops   180 x   114 x   193           2217801600     100.0%      0.0%      0.0%
 flops   373 x    57 x   193           2297888880     100.0%      0.0%      0.0%
 flops   193 x   193 x  1176           3679605216     100.0%      0.0%      0.0%
 flops   193 x   193 x  1218           3811019688     100.0%      0.0%      0.0%
 flops   180 x   114 x    57           3929990400     100.0%      0.0%      0.0%
 flops   373 x    57 x    57           4071906720     100.0%      0.0%      0.0%
 flops   180 x   114 x   180           4136832000     100.0%      0.0%      0.0%
 flops   373 x    57 x   180           4286217600     100.0%      0.0%      0.0%
 flops   373 x   114 x   193           4595777760     100.0%      0.0%      0.0%
 flops    57 x  1368 x    57           6800286960     100.0%      0.0%      0.0%
 flops   193 x   180 x  1176           6863512320     100.0%      0.0%      0.0%
 flops   180 x   193 x  1176           6863512320     100.0%      0.0%      0.0%
 flops   193 x   180 x  1218           7108637760     100.0%      0.0%      0.0%
 flops   180 x   193 x  1218           7108637760     100.0%      0.0%      0.0%
 flops   373 x   114 x    57           8143813440     100.0%      0.0%      0.0%
 flops   373 x   114 x   180           8572435200     100.0%      0.0%      0.0%
 flops   193 x   193 x  1204          11301644592     100.0%      0.0%      0.0%
 flops   193 x   193 x  1247          11705274756     100.0%      0.0%      0.0%
 flops   180 x   180 x  1176          12802406400     100.0%      0.0%      0.0%
 flops   180 x   180 x  1218          13259635200     100.0%      0.0%      0.0%
 flops   193 x   180 x  1204          21080787840     100.0%      0.0%      0.0%
 flops   180 x   193 x  1204          21080787840     100.0%      0.0%      0.0%
 flops   193 x   180 x  1247          21833673120     100.0%      0.0%      0.0%
 flops   180 x   193 x  1247          21833673120     100.0%      0.0%      0.0%
 flops   180 x   180 x  1204          39321676800     100.0%      0.0%      0.0%
 flops   180 x   180 x  1247          40726022400     100.0%      0.0%      0.0%
 flops    57 x  1311 x    57         149889658410     100.0%      0.0%      0.0%
 flops inhomo. stacks                           0       0.0%      0.0%      0.0%
 flops total                       459.215410E+09     100.0%      0.0%      0.0%
 flops max/rank                     40.666171E+09     100.0%      0.0%      0.0%
 matmuls inhomo. stacks                         0       0.0%      0.0%      0.0%
 matmuls total                              31884     100.0%      0.0%      0.0%
 number of processed stacks                 12530     100.0%      0.0%      0.0%
 average stack size                                     2.5       0.0       0.0
 marketing flops                   462.894858E+09
 -------------------------------------------------------------------------------
 # multiplications                            902
 max memory usage/rank             587.333632E+06
 # max total images/rank                        3
 # max 3D layers                                1
 # MPI messages exchanged                  391704
 MPI messages size (bytes):
  total size                         6.850485E+09
  min size                           0.000000E+00
  max size                         575.912000E+03
  average size                      17.488932E+03
 MPI breakdown and total messages size (bytes):
             size <=      128              350554                        0
       128 < size <=     8192                  25                   125400
      8192 < size <=    32768                5119                132797688
     32768 < size <=   131072               16014               1166099616
    131072 < size <=  4194304               19992               5551447104
   4194304 < size <= 16777216                   0                        0
  16777216 < size                               0                        0
 -------------------------------------------------------------------------------

 *** WARNING in dbcsr_mm.F:278 :: Using a non-square number of MPI ranks ***
 *** might lead to poor performance. Used ranks: 24 Suggested: 25 49     ***

 -------------------------------------------------------------------------------
 -                                                                             -
 -                      DBCSR MESSAGE PASSING PERFORMANCE                      -
 -                                                                             -
 -------------------------------------------------------------------------------

 ROUTINE             CALLS      AVE VOLUME [Bytes]
 MP_Group               26
 MP_Bcast               45                     12.
 MP_Allreduce         5161                      8.
 MP_Alltoall          2596                  47655.
 MP_Wait             49136
 MP_ISend            36280                  28476.
 MP_IRecv            36310                   9524.
 MP_Memory           67380
 -------------------------------------------------------------------------------


 MEMORY| Estimated peak process memory [MiB]                                 561

 -------------------------------------------------------------------------------
 ----                             MULTIGRID INFO                            ----
 -------------------------------------------------------------------------------
 count for grid        1:         278907          cutoff [a.u.]          200.00
 count for grid        2:          40189          cutoff [a.u.]           66.67
 count for grid        3:          15538          cutoff [a.u.]           22.22
 count for grid        4:           2415          cutoff [a.u.]            7.41
 total gridlevel count  :         337049

 -------------------------------------------------------------------------------
 -                                                                             -
 -                         MESSAGE PASSING PERFORMANCE                         -
 -                                                                             -
 -------------------------------------------------------------------------------

 ROUTINE             CALLS      AVE VOLUME [Bytes]
 MP_Group                5
 MP_Bcast              200                2969340.
 MP_Allreduce          347                  33328.
 MP_Sync                72
 MP_Alltoall           123                3779274.
 MP_ISendRecv          276                  63172.
 MP_Wait               940
 MP_comm_split          10
 MP_ISend             3226                 128085.
 MP_IRecv             2706                 263259.
 MP_Recv                 5                   2736.
 -------------------------------------------------------------------------------


 -------------------------------------------------------------------------------
 -                                                                             -
 -                           R E F E R E N C E S                               -
 -                                                                             -
 -------------------------------------------------------------------------------
 
 CP2K version 7.0 (Development Version), the CP2K developers group (2018).
 CP2K is freely available from https://www.cp2k.org/ .

 Schuett, Ole; Messmer, Peter; Hutter, Juerg; VandeVondele, Joost. 
 Electronic Structure Calculations on Graphics Processing Units, John Wiley & Sons, Ltd, 173-190 (2016). 
 GPU-Accelerated Sparse Matrix-Matrix Multiplication for Linear Scaling Density Functional Theory.
 https://dx.doi.org/10.1002/9781118670712.ch8


 Del Ben, M; Schuett, O; Wentz, T; Messmer, P; Hutter, J;
 VandeVondele, J. 
 COMPUTER PHYSICS COMMUNICATIONS, 187, 120-129 (2015). 
 Enabling simulation at the fifth rung of DFT: Large scale RPA
 calculations with excellent time to solution.
 https://dx.doi.org/10.1016/j.cpc.2014.10.021


 Borstnik, U; VandeVondele, J; Weber, V; Hutter, J. 
 PARALLEL COMPUTING, 40 (5-6), 47-58 (2014). 
 Sparse matrix multiplication: The distributed block-compressed sparse
 row library.
 https://dx.doi.org/10.1016/j.parco.2014.03.012


 Hutter, J; Iannuzzi, M; Schiffmann, F; VandeVondele, J. 
 WILEY INTERDISCIPLINARY REVIEWS-COMPUTATIONAL MOLECULAR SCIENCE, 4 (1), 15-25 (2014). 
 CP2K: atomistic simulations of condensed matter systems.
 https://dx.doi.org/10.1002/wcms.1159


 Del Ben, M; Hutter, J; VandeVondele, J. 
 JOURNAL OF CHEMICAL THEORY AND COMPUTATION, 9 (6), 2654-2671 (2013). 
 Electron Correlation in the Condensed Phase from a Resolution of
 Identity Approach Based on the Gaussian and Plane Waves Scheme.
 https://dx.doi.org/10.1021/ct4002202


 Del Ben, M; Hutter, J; VandeVondele, J. 
 JOURNAL OF CHEMICAL THEORY AND COMPUTATION, 8 (11), 4177-4188 (2012). 
 Second-Order Moller-Plesset Perturbation Theory in the Condensed Phase:
 An Efficient and Massively Parallel Gaussian and Plane Waves Approach.
 https://dx.doi.org/10.1021/ct300531w


 Guidon, M; Hutter, J; VandeVondele, J. 
 JOURNAL OF CHEMICAL THEORY AND COMPUTATION, 5 (11), 3010-3021 (2009). 
 Robust Periodic Hartree-Fock Exchange for Large-Scale Simulations Using
 Gaussian Basis Sets.
 https://dx.doi.org/10.1021/ct900494g


 Guidon, M; Schiffmann, F; Hutter, J; VandeVondele, J. 
 JOURNAL OF CHEMICAL PHYSICS, 128 (21), 214104 (2008). 
 Ab initio molecular dynamics using hybrid density functionals.
 https://dx.doi.org/10.1063/1.2931945


 Frigo, M; Johnson, SG. 
 PROCEEDINGS OF THE IEEE, 93 (2), 216-231 (2005). 
 The design and implementation of FFTW3.
 https://dx.doi.org/10.1109/JPROC.2004.840301


 Lippert, G; Hutter, J; Parrinello, M. 
 THEORETICAL CHEMISTRY ACCOUNTS, 103 (2), 124-140 (1999). 
 The Gaussian and augmented-plane-wave density functional method for ab
 initio molecular dynamics simulations.
 https://dx.doi.org/10.1007/s002140050523


 Krack, M; Parrinello, M. 
 PHYSICAL CHEMISTRY CHEMICAL PHYSICS, 2 (10), 2105-2112 (2000). 
 All-electron ab-initio molecular dynamics.
 https://dx.doi.org/10.1039/b001167n


 Martyna, GJ; Tuckerman, ME. 
 JOURNAL OF CHEMICAL PHYSICS, 110 (6), 2810-2821 (1999). 
 A reciprocal space based method for treating long range interactions in
 ab initio and force-field-based calculations in clusters.
 https://dx.doi.org/10.1063/1.477923


 Perdew, JP; Burke, K; Ernzerhof, M. 
 PHYSICAL REVIEW LETTERS, 77 (18), 3865-3868 (1996). 
 Generalized gradient approximation made simple.
 https://dx.doi.org/10.1103/PhysRevLett.77.3865


 -------------------------------------------------------------------------------
 -                                                                             -
 -                                T I M I N G                                  -
 -                                                                             -
 -------------------------------------------------------------------------------
 SUBROUTINE                       CALLS  ASD         SELF TIME        TOTAL TIME
                                MAXIMUM       AVERAGE  MAXIMUM  AVERAGE  MAXIMUM
 CP2K                                 1  1.0    0.038    0.053  419.756  419.757
 qs_energies                          1  2.0    0.000    0.001  416.512  416.512
 mp2_main                             1  3.0    0.000    0.000  410.772  410.775
 mp2_gpw_main                         1  4.0    0.000    0.001  386.309  386.309
 mp2_ri_gpw_compute_in                1  5.0    0.000    0.000  192.648  194.877
 compute_low_sc_3c_integrals          1  6.0   57.651   58.894  191.529  193.756
 rpa_ri_compute_en                    1  5.0    0.000    0.000  191.425  191.425
 rpa_num_int                          1  6.0    0.001    0.002  191.422  191.423
 compute_low_sc_3c_integrals_pu   62232  7.0  132.735  135.280  132.735  135.280
 get_l_sq_wghts_cos_tf_t_to_w         2  7.0   80.313   81.306   81.311   81.312
 get_l_sq_wghts_sin_tf_t_to_w         2  7.0   80.100   81.249   81.260   81.261
 compute_vec_Sigma_x_minus_vxc_       1  4.0    0.000    0.000   24.446   24.446
 integrate_four_center                1  5.0    0.003    0.004   23.238   23.238
 dbcsr_multiply_generic             902  9.9    0.064    0.084   18.283   19.815
 multiply_cannon                    902 10.9    0.172    0.213   14.130   16.692
 calc_screening_functions             1  6.0    9.693   10.221   13.955   14.913
 multiply_cannon_multrec          10351 11.9    6.891   12.989    8.155   13.119
 compute_mat_P_omega                  1  7.0    0.000    0.000   13.003   13.003
 GW_postprocessing                    1  7.0    0.000    0.000   10.871   10.872
 compute_self_energy_im_time_gw       1  8.0    0.005    0.006   10.859   10.859
 -------------------------------------------------------------------------------

 The number of warnings for this run is : 1
 
 -------------------------------------------------------------------------------
  **** **** ******  **  PROGRAM ENDED AT                 2019-06-07 20:44:08.326
 ***** ** ***  *** **   PROGRAM RAN ON                                    tcopt4
 **    ****   ******    PROGRAM RAN BY                                   wilhelm
 ***** **    ** ** **   PROGRAM PROCESS ID                                 96534
  **** **  *******  **  PROGRAM STOPPED IN /data/wilhelm/2_job_test/11_GW100/3_c
                                           alcs/77_CO2
