 DBCSR| CPU Multiplication driver                                           BLAS
 DBCSR| Multrec recursion limit                                              512
 DBCSR| Multiplication stack size                                           1000
 DBCSR| Maximum elements for images                                    UNLIMITED
 DBCSR| Multiplicative factor virtual images                                   1
 DBCSR| Use multiplication densification                                       T
 DBCSR| Multiplication size stacks                                             3
 DBCSR| Number of 3D layers                                               SINGLE
 DBCSR| Use MPI memory allocation                                              T
 DBCSR| Use RMA algorithm                                                      F
 DBCSR| Use Communication thread                                               T
 DBCSR| Communication thread load                                             87


  **** **** ******  **  PROGRAM STARTED AT               2019-05-31 16:23:51.972
 ***** ** ***  *** **   PROGRAM STARTED ON                                tcopt4
 **    ****   ******    PROGRAM STARTED BY                               wilhelm
 ***** **    ** ** **   PROGRAM PROCESS ID                                 76818
  **** **  *******  **  PROGRAM STARTED IN /data/wilhelm/2_job_test/11_GW100/3_c
                                           alcs/07_Li2

 CP2K| version string:                    CP2K version 7.0 (Development Version)
 CP2K| source code revision number:                                  git:026fb12
 CP2K| cp2kflags: libint fftw3 libxc pexsi elpa=201705 parallel mpi3 scalapack q
 CP2K|            uip libderiv_max_am1=5 libint_max_am=6
 CP2K| is freely available from                            https://www.cp2k.org/
 CP2K| Program compiled at                         Sat May 11 13:15:02 CEST 2019
 CP2K| Program compiled on                                                tcopt4
 CP2K| Program compiled for                            local_valgrind_March_2019
 CP2K| Data directory path              /data/wilhelm/1_git_repository/cp2k/data
 CP2K| Input file name                                                    GW.inp

 GLOBAL| Force Environment number                                              1
 GLOBAL| Basis set file name                              BASIS_def2_QZVP_RI_ALL
 GLOBAL| Potential file name                                           POTENTIAL
 GLOBAL| MM Potential file name                                     MM_POTENTIAL
 GLOBAL| Coordinate file name                                         07_Li2.xyz
 GLOBAL| Method name                                                        CP2K
 GLOBAL| Project name                                                   ALL_ELEC
 GLOBAL| Preferred FFT library                                             FFTW3
 GLOBAL| Preferred diagonalization lib.                                       SL
 GLOBAL| Run type                                                         ENERGY
 GLOBAL| All-to-all communication in single precision                          F
 GLOBAL| FFTs using library dependent lengths                                  F
 GLOBAL| Global print level                                               MEDIUM
 GLOBAL| MPI I/O enabled                                                       T
 GLOBAL| Total number of message passing processes                            40
 GLOBAL| Number of threads for this process                                    1
 GLOBAL| This output is from process                                           0
 GLOBAL| CPU model name :  Intel(R) Xeon(R) CPU E5-2697 v3 @ 2.60GHz

 MEMORY| system memory details [Kb]
 MEMORY|                        rank 0           min           max       average
 MEMORY| MemTotal            396954008     396954008     396954008     396954008
 MEMORY| MemFree             376665644     376665644     376665644     376665644
 MEMORY| Buffers                333632        333632        333632        333632
 MEMORY| Cached               16041848      16041848      16041848      16041848
 MEMORY| Slab                   603584        603584        603584        603584
 MEMORY| SReclaimable           461840        461840        461840        461840
 MEMORY| MemLikelyFree       393502964     393502964     393502964     393502964


 *** Fundamental physical constants (SI units) ***

 *** Literature: B. J. Mohr and B. N. Taylor,
 ***             CODATA recommended values of the fundamental physical
 ***             constants: 2006, Web Version 5.1
 ***             http://physics.nist.gov/constants

 Speed of light in vacuum [m/s]                             2.99792458000000E+08
 Magnetic constant or permeability of vacuum [N/A**2]       1.25663706143592E-06
 Electric constant or permittivity of vacuum [F/m]          8.85418781762039E-12
 Planck constant (h) [J*s]                                  6.62606896000000E-34
 Planck constant (h-bar) [J*s]                              1.05457162825177E-34
 Elementary charge [C]                                      1.60217648700000E-19
 Electron mass [kg]                                         9.10938215000000E-31
 Electron g factor [ ]                                     -2.00231930436220E+00
 Proton mass [kg]                                           1.67262163700000E-27
 Fine-structure constant                                    7.29735253760000E-03
 Rydberg constant [1/m]                                     1.09737315685270E+07
 Avogadro constant [1/mol]                                  6.02214179000000E+23
 Boltzmann constant [J/K]                                   1.38065040000000E-23
 Atomic mass unit [kg]                                      1.66053878200000E-27
 Bohr radius [m]                                            5.29177208590000E-11

 *** Conversion factors ***

 [u] -> [a.u.]                                              1.82288848426455E+03
 [Angstrom] -> [Bohr] = [a.u.]                              1.88972613288564E+00
 [a.u.] = [Bohr] -> [Angstrom]                              5.29177208590000E-01
 [a.u.] -> [s]                                              2.41888432650478E-17
 [a.u.] -> [fs]                                             2.41888432650478E-02
 [a.u.] -> [J]                                              4.35974393937059E-18
 [a.u.] -> [N]                                              8.23872205491840E-08
 [a.u.] -> [K]                                              3.15774647902944E+05
 [a.u.] -> [kJ/mol]                                         2.62549961709828E+03
 [a.u.] -> [kcal/mol]                                       6.27509468713739E+02
 [a.u.] -> [Pa]                                             2.94210107994716E+13
 [a.u.] -> [bar]                                            2.94210107994716E+08
 [a.u.] -> [atm]                                            2.90362800883016E+08
 [a.u.] -> [eV]                                             2.72113838565563E+01
 [a.u.] -> [Hz]                                             6.57968392072181E+15
 [a.u.] -> [1/cm] (wave numbers)                            2.19474631370540E+05
 [a.u./Bohr**2] -> [1/cm]                                   5.14048714338585E+03
 

 CELL_TOP| Volume [angstrom^3]:                                         4096.000
 CELL_TOP| Vector a [angstrom    16.000     0.000     0.000    |a| =      16.000
 CELL_TOP| Vector b [angstrom     0.000    16.000     0.000    |b| =      16.000
 CELL_TOP| Vector c [angstrom     0.000     0.000    16.000    |c| =      16.000
 CELL_TOP| Angle (b,c), alpha [degree]:                                   90.000
 CELL_TOP| Angle (a,c), beta  [degree]:                                   90.000
 CELL_TOP| Angle (a,b), gamma [degree]:                                   90.000
 CELL_TOP| Numerically orthorhombic:                                         YES

 GENERATE|  Preliminary Number of Bonds generated:                             0
 GENERATE|  Achieved consistency in connectivity generation.

 CELL| Volume [angstrom^3]:                                             4096.000
 CELL| Vector a [angstrom]:      16.000     0.000     0.000    |a| =      16.000
 CELL| Vector b [angstrom]:       0.000    16.000     0.000    |b| =      16.000
 CELL| Vector c [angstrom]:       0.000     0.000    16.000    |c| =      16.000
 CELL| Angle (b,c), alpha [degree]:                                       90.000
 CELL| Angle (a,c), beta  [degree]:                                       90.000
 CELL| Angle (a,b), gamma [degree]:                                       90.000
 CELL| Numerically orthorhombic:                                             YES

 CELL_REF| Volume [angstrom^3]:                                         4096.000
 CELL_REF| Vector a [angstrom    16.000     0.000     0.000    |a| =      16.000
 CELL_REF| Vector b [angstrom     0.000    16.000     0.000    |b| =      16.000
 CELL_REF| Vector c [angstrom     0.000     0.000    16.000    |c| =      16.000
 CELL_REF| Angle (b,c), alpha [degree]:                                   90.000
 CELL_REF| Angle (a,c), beta  [degree]:                                   90.000
 CELL_REF| Angle (a,b), gamma [degree]:                                   90.000
 CELL_REF| Numerically orthorhombic:                                         YES

 *******************************************************************************
 *******************************************************************************
 **                                                                           **
 **     #####                         ##              ##                      **
 **    ##   ##            ##          ##              ##                      **
 **   ##     ##                       ##            ######                    **
 **   ##     ##  ##   ##  ##   #####  ##  ##   ####   ##    #####    #####    **
 **   ##     ##  ##   ##  ##  ##      ## ##   ##      ##   ##   ##  ##   ##   **
 **   ##  ## ##  ##   ##  ##  ##      ####     ###    ##   ######   ######    **
 **    ##  ###   ##   ##  ##  ##      ## ##      ##   ##   ##       ##        **
 **     #######   #####   ##   #####  ##  ##  ####    ##    #####   ##        **
 **           ##                                                    ##        **
 **                                                                           **
 **                                                ... make the atoms dance   **
 **                                                                           **
 **            Copyright (C) by CP2K developers group (2000 - 2019)           **
 **                                                                           **
 *******************************************************************************

 DFT| Spin restricted Kohn-Sham (RKS) calculation                            RKS
 DFT| Multiplicity                                                             1
 DFT| Number of spin states                                                    1
 DFT| Charge                                                                   0
 DFT| Self-interaction correction (SIC)                                       NO
 DFT| Cutoffs: density                                              1.000000E-10
 DFT|          gradient                                             1.000000E-10
 DFT|          tau                                                  1.000000E-10
 DFT|          cutoff_smoothing_range                               0.000000E+00
 DFT| XC density smoothing                                                  NONE
 DFT| XC derivatives                                                          PW
 FUNCTIONAL| ROUTINE=NEW
 FUNCTIONAL| PBE:
 FUNCTIONAL| J.P.Perdew, K.Burke, M.Ernzerhof, Phys. Rev. Letter, vol. 77, n 18,
 FUNCTIONAL|  pp. 3865-3868, (1996){spin unpolarized}                           

 QS| Method:                                                                GAPW
 QS| Density plane wave grid type                        NON-SPHERICAL FULLSPACE
 QS| Number of grid levels:                                                    4
 QS| Density cutoff [a.u.]:                                                200.0
 QS| Multi grid cutoff [a.u.]: 1) grid level                               200.0
 QS|                           2) grid level                                66.7
 QS|                           3) grid level                                22.2
 QS|                           4) grid level                                 7.4
 QS| Grid level progression factor:                                          3.0
 QS| Relative density cutoff [a.u.]:                                        25.0
 QS| Consistent realspace mapping and integration 
 QS| Interaction thresholds: eps_pgf_orb:                                1.0E-05
 QS|                         eps_filter_matrix:                          0.0E+00
 QS|                         eps_core_charge:                            1.0E-12
 QS|                         eps_rho_gspace:                             1.0E-10
 QS|                         eps_rho_rspace:                             1.0E-10
 QS|                         eps_gvg_rspace:                             1.0E-05
 QS|                         eps_ppl:                                    1.0E-02
 QS|                         eps_ppnl:                                   1.0E-07
 QS| GAPW|                   eps_fit:                                    1.0E-04
 QS| GAPW|                   eps_iso:                                    1.0E-12
 QS| GAPW|                   eps_svd:                                    1.0E-08
 QS| GAPW|                   eps_cpc:                                    1.0E-10
 QS| GAPW|   atom-r-grid: quadrature:                 GC_LOG                        
 QS| GAPW|      atom-s-grid:  max l :                                          6
 QS| GAPW|      max_l_rho0 :                                                   2


 ATOMIC KIND INFORMATION

  1. Atomic kind: Li                                    Number of atoms:       2

     Orbital Basis Set                                                 def2-QZVP

       Number of orbital shell sets:                                          13
       Number of orbital shells:                                              13
       Number of primitive Cartesian functions:                               24
       Number of Cartesian basis functions:                                   40
       Number of spherical basis functions:                                   35
       Norm type:                                                              2

       Normalised Cartesian orbitals:

                        Set   Shell   Orbital            Exponent    Coefficient

                          1       1    1s            14853.977085       0.046759
                                                      2225.223648       0.087614
                                                       504.887390       0.151822
                                                       142.458475       0.246528
                                                        46.315600       0.374141
                                                        16.655335       0.514324
                                                         6.433119       0.600678
                                                         2.602704       0.544460
                                                         1.089725       0.321097

                          2       1    1s                4.423660       0.272734
                                                         1.235639       0.753703

                          3       1    1s                0.460675       0.398525

                          4       1    1s                0.096617       0.123510

                          5       1    1s                0.045915       0.070693

                          6       1    1s                0.021140       0.039513

                          7       1    1px               3.260511       0.222231
                                                         0.650030       0.162952
                                                         0.169417       0.133843
                          7       1    1py               3.260511       0.222231
                                                         0.650030       0.162952
                                                         0.169417       0.133843
                          7       1    1pz               3.260511       0.222231
                                                         0.650030       0.162952
                                                         0.169417       0.133843

                          8       1    1px               0.055732       0.038599
                          8       1    1py               0.055732       0.038599
                          8       1    1pz               0.055732       0.038599

                          9       1    1px               0.020490       0.011050
                          9       1    1py               0.020490       0.011050
                          9       1    1pz               0.020490       0.011050

                         10       1    1px               3.327000       6.404808
                         10       1    1py               3.327000       6.404808
                         10       1    1pz               3.327000       6.404808

                         11       1    1dx2              0.230000       0.125728
                         11       1    1dxy              0.230000       0.217768
                         11       1    1dxz              0.230000       0.217768
                         11       1    1dy2              0.230000       0.125728
                         11       1    1dyz              0.230000       0.217768
                         11       1    1dz2              0.230000       0.125728

                         12       1    1dx2              0.075700       0.017982
                         12       1    1dxy              0.075700       0.031145
                         12       1    1dxz              0.075700       0.031145
                         12       1    1dy2              0.075700       0.017982
                         12       1    1dyz              0.075700       0.031145
                         12       1    1dz2              0.075700       0.017982

                         13       1    1fx3              0.135000       0.016263
                         13       1    1fx2y             0.135000       0.036366
                         13       1    1fx2z             0.135000       0.036366
                         13       1    1fxy2             0.135000       0.036366
                         13       1    1fxyz             0.135000       0.062987
                         13       1    1fxz2             0.135000       0.036366
                         13       1    1fy3              0.135000       0.016263
                         13       1    1fy2z             0.135000       0.036366
                         13       1    1fyz2             0.135000       0.036366
                         13       1    1fz3              0.135000       0.016263

     RI Auxiliary Basis Set                                                RI-5Z

       Number of orbital shell sets:                                          39
       Number of orbital shells:                                              39
       Number of primitive Cartesian functions:                               39
       Number of Cartesian basis functions:                                  287
       Number of spherical basis functions:                                  193
       Norm type:                                                              2

       Normalised Cartesian orbitals:

                        Set   Shell   Orbital            Exponent    Coefficient

                          1       1    1s              115.553000      25.118634

                          2       1    1s               24.228600       7.783167

                          3       1    1s                7.795370       3.324969

                          4       1    1s                2.891360       1.580290

                          5       1    1s                1.423940       0.929028

                          6       1    1s                0.705917       0.548877

                          7       1    1s                0.380123       0.345027

                          8       1    1s                0.246901       0.249633

                          9       1    1s                0.123532       0.148506

                         10       1    1s                0.064288       0.090993

                         11       1    1px              20.093900      60.641563
                         11       1    1py              20.093900      60.641563
                         11       1    1pz              20.093900      60.641563

                         12       1    1px               6.081490      13.612960
                         12       1    1py               6.081490      13.612960
                         12       1    1pz               6.081490      13.612960

                         13       1    1px               2.347260       4.141347
                         13       1    1py               2.347260       4.141347
                         13       1    1pz               2.347260       4.141347

                         14       1    1px               1.029950       1.478973
                         14       1    1py               1.029950       1.478973
                         14       1    1pz               1.029950       1.478973

                         15       1    1px               0.520190       0.629713
                         15       1    1py               0.520190       0.629713
                         15       1    1pz               0.520190       0.629713

                         16       1    1px               0.223276       0.218772
                         16       1    1py               0.223276       0.218772
                         16       1    1pz               0.223276       0.218772

                         17       1    1px               0.121261       0.101998
                         17       1    1py               0.121261       0.101998
                         17       1    1pz               0.121261       0.101998

                         18       1    1px               0.072777       0.053881
                         18       1    1py               0.072777       0.053881
                         18       1    1pz               0.072777       0.053881

                         19       1    1dx2              6.963580      49.132227
                         19       1    1dxy              6.963580      85.099514
                         19       1    1dxz              6.963580      85.099514
                         19       1    1dy2              6.963580      49.132227
                         19       1    1dyz              6.963580      85.099514
                         19       1    1dz2              6.963580      49.132227

                         20       1    1dx2              2.681530       9.248666
                         20       1    1dxy              2.681530      16.019160
                         20       1    1dxz              2.681530      16.019160
                         20       1    1dy2              2.681530       9.248666
                         20       1    1dyz              2.681530      16.019160
                         20       1    1dz2              2.681530       9.248666

                         21       1    1dx2              1.351630       2.788757
                         21       1    1dxy              1.351630       4.830269
                         21       1    1dxz              1.351630       4.830269
                         21       1    1dy2              1.351630       2.788757
                         21       1    1dyz              1.351630       4.830269
                         21       1    1dz2              1.351630       2.788757

                         22       1    1dx2              0.771893       1.046247
                         22       1    1dxy              0.771893       1.812154
                         22       1    1dxz              0.771893       1.812154
                         22       1    1dy2              0.771893       1.046247
                         22       1    1dyz              0.771893       1.812154
                         22       1    1dz2              0.771893       1.046247

                         23       1    1dx2              0.339644       0.248715
                         23       1    1dxy              0.339644       0.430786
                         23       1    1dxz              0.339644       0.430786
                         23       1    1dy2              0.339644       0.248715
                         23       1    1dyz              0.339644       0.430786
                         23       1    1dz2              0.339644       0.248715

                         24       1    1dx2              0.173452       0.076731
                         24       1    1dxy              0.173452       0.132903
                         24       1    1dxz              0.173452       0.132903
                         24       1    1dy2              0.173452       0.076731
                         24       1    1dyz              0.173452       0.132903
                         24       1    1dz2              0.173452       0.076731

                         25       1    1dx2              0.101078       0.029823
                         25       1    1dxy              0.101078       0.051656
                         25       1    1dxz              0.101078       0.051656
                         25       1    1dy2              0.101078       0.029823
                         25       1    1dyz              0.101078       0.051656
                         25       1    1dz2              0.101078       0.029823

                         26       1    1fx3              3.229490      20.582865
                         26       1    1fx2y             3.229490      46.024685
                         26       1    1fx2z             3.229490      46.024685
                         26       1    1fxy2             3.229490      46.024685
                         26       1    1fxyz             3.229490      79.717093
                         26       1    1fxz2             3.229490      46.024685
                         26       1    1fy3              3.229490      20.582865
                         26       1    1fy2z             3.229490      46.024685
                         26       1    1fyz2             3.229490      46.024685
                         26       1    1fz3              3.229490      20.582865

                         27       1    1fx3              1.349290       2.888626
                         27       1    1fx2y             1.349290       6.459165
                         27       1    1fx2z             1.349290       6.459165
                         27       1    1fxy2             1.349290       6.459165
                         27       1    1fxyz             1.349290      11.187602
                         27       1    1fxz2             1.349290       6.459165
                         27       1    1fy3              1.349290       2.888626
                         27       1    1fy2z             1.349290       6.459165
                         27       1    1fyz2             1.349290       6.459165
                         27       1    1fz3              1.349290       2.888626

                         28       1    1fx3              0.764640       0.804883
                         28       1    1fx2y             0.764640       1.799773
                         28       1    1fx2z             0.764640       1.799773
                         28       1    1fxy2             0.764640       1.799773
                         28       1    1fxyz             0.764640       3.117298
                         28       1    1fxz2             0.764640       1.799773
                         28       1    1fy3              0.764640       0.804883
                         28       1    1fy2z             0.764640       1.799773
                         28       1    1fyz2             0.764640       1.799773
                         28       1    1fz3              0.764640       0.804883

                         29       1    1fx3              0.415519       0.204072
                         29       1    1fx2y             0.415519       0.456319
                         29       1    1fx2z             0.415519       0.456319
                         29       1    1fxy2             0.415519       0.456319
                         29       1    1fxyz             0.415519       0.790368
                         29       1    1fxz2             0.415519       0.456319
                         29       1    1fy3              0.415519       0.204072
                         29       1    1fy2z             0.415519       0.456319
                         29       1    1fyz2             0.415519       0.456319
                         29       1    1fz3              0.415519       0.204072

                         30       1    1fx3              0.259280       0.070621
                         30       1    1fx2y             0.259280       0.157914
                         30       1    1fx2z             0.259280       0.157914
                         30       1    1fxy2             0.259280       0.157914
                         30       1    1fxyz             0.259280       0.273515
                         30       1    1fxz2             0.259280       0.157914
                         30       1    1fy3              0.259280       0.070621
                         30       1    1fy2z             0.259280       0.157914
                         30       1    1fyz2             0.259280       0.157914
                         30       1    1fz3              0.259280       0.070621

                         31       1    1fx3              0.156013       0.022520
                         31       1    1fx2y             0.156013       0.050356
                         31       1    1fx2z             0.156013       0.050356
                         31       1    1fxy2             0.156013       0.050356
                         31       1    1fxyz             0.156013       0.087219
                         31       1    1fxz2             0.156013       0.050356
                         31       1    1fy3              0.156013       0.022520
                         31       1    1fy2z             0.156013       0.050356
                         31       1    1fyz2             0.156013       0.050356
                         31       1    1fz3              0.156013       0.022520

                         32       1    1gx4              1.819640       5.772919
                         32       1    1gx3y             1.819640      15.273709
                         32       1    1gx3z             1.819640      15.273709
                         32       1    1gx2y2            1.819640      19.718273
                         32       1    1gx2yz            1.819640      34.153051
                         32       1    1gx2z2            1.819640      19.718273
                         32       1    1gxy3             1.819640      15.273709
                         32       1    1gxy2z            1.819640      34.153051
                         32       1    1gxyz2            1.819640      34.153051
                         32       1    1gxz3             1.819640      15.273709
                         32       1    1gy4              1.819640       5.772919
                         32       1    1gy3z             1.819640      15.273709
                         32       1    1gy2z2            1.819640      19.718273
                         32       1    1gyz3             1.819640      15.273709
                         32       1    1gz4              1.819640       5.772919

                         33       1    1gx4              0.856517       0.726874
                         33       1    1gx3y             0.856517       1.923129
                         33       1    1gx3z             0.856517       1.923129
                         33       1    1gx2y2            0.856517       2.482749
                         33       1    1gx2yz            0.856517       4.300247
                         33       1    1gx2z2            0.856517       2.482749
                         33       1    1gxy3             0.856517       1.923129
                         33       1    1gxy2z            0.856517       4.300247
                         33       1    1gxyz2            0.856517       4.300247
                         33       1    1gxz3             0.856517       1.923129
                         33       1    1gy4              0.856517       0.726874
                         33       1    1gy3z             0.856517       1.923129
                         33       1    1gy2z2            0.856517       2.482749
                         33       1    1gyz3             0.856517       1.923129
                         33       1    1gz4              0.856517       0.726874

                         34       1    1gx4              0.434910       0.112729
                         34       1    1gx3y             0.434910       0.298252
                         34       1    1gx3z             0.434910       0.298252
                         34       1    1gx2y2            0.434910       0.385041
                         34       1    1gx2yz            0.434910       0.666911
                         34       1    1gx2z2            0.434910       0.385041
                         34       1    1gxy3             0.434910       0.298252
                         34       1    1gxy2z            0.434910       0.666911
                         34       1    1gxyz2            0.434910       0.666911
                         34       1    1gxz3             0.434910       0.298252
                         34       1    1gy4              0.434910       0.112729
                         34       1    1gy3z             0.434910       0.298252
                         34       1    1gy2z2            0.434910       0.385041
                         34       1    1gyz3             0.434910       0.298252
                         34       1    1gz4              0.434910       0.112729

                         35       1    1gx4              0.196188       0.012627
                         35       1    1gx3y             0.196188       0.033407
                         35       1    1gx3z             0.196188       0.033407
                         35       1    1gx2y2            0.196188       0.043128
                         35       1    1gx2yz            0.196188       0.074700
                         35       1    1gx2z2            0.196188       0.043128
                         35       1    1gxy3             0.196188       0.033407
                         35       1    1gxy2z            0.196188       0.074700
                         35       1    1gxyz2            0.196188       0.074700
                         35       1    1gxz3             0.196188       0.033407
                         35       1    1gy4              0.196188       0.012627
                         35       1    1gy3z             0.196188       0.033407
                         35       1    1gy2z2            0.196188       0.043128
                         35       1    1gyz3             0.196188       0.033407
                         35       1    1gz4              0.196188       0.012627

                         36       1    1hx5              1.185280       1.289028
                         36       1    1hx4y             1.185280       3.867083
                         36       1    1hx4z             1.185280       3.867083
                         36       1    1hx3y2            1.185280       5.907067
                         36       1    1hx3yz            1.185280      10.231341
                         36       1    1hx3z2            1.185280       5.907067
                         36       1    1hx2y3            1.185280       5.907067
                         36       1    1hx2y2z           1.185280      13.208604
                         36       1    1hx2yz2           1.185280      13.208604
                         36       1    1hx2z3            1.185280       5.907067
                         36       1    1hxy4             1.185280       3.867083
                         36       1    1hxy3z            1.185280      10.231341
                         36       1    1hxy2z2           1.185280      13.208604
                         36       1    1hxyz3            1.185280      10.231341
                         36       1    1hxz4             1.185280       3.867083
                         36       1    1hy5              1.185280       1.289028
                         36       1    1hy4z             1.185280       3.867083
                         36       1    1hy3z2            1.185280       5.907067
                         36       1    1hy2z3            1.185280       5.907067
                         36       1    1hyz4             1.185280       3.867083
                         36       1    1hz5              1.185280       1.289028

                         37       1    1hx5              0.598672       0.140026
                         37       1    1hx4y             0.598672       0.420078
                         37       1    1hx4z             0.598672       0.420078
                         37       1    1hx3y2            0.598672       0.641679
                         37       1    1hx3yz            0.598672       1.111421
                         37       1    1hx3z2            0.598672       0.641679
                         37       1    1hx2y3            0.598672       0.641679
                         37       1    1hx2y2z           0.598672       1.434838
                         37       1    1hx2yz2           0.598672       1.434838
                         37       1    1hx2z3            0.598672       0.641679
                         37       1    1hxy4             0.598672       0.420078
                         37       1    1hxy3z            0.598672       1.111421
                         37       1    1hxy2z2           0.598672       1.434838
                         37       1    1hxyz3            0.598672       1.111421
                         37       1    1hxz4             0.598672       0.420078
                         37       1    1hy5              0.598672       0.140026
                         37       1    1hy4z             0.598672       0.420078
                         37       1    1hy3z2            0.598672       0.641679
                         37       1    1hy2z3            0.598672       0.641679
                         37       1    1hyz4             0.598672       0.420078
                         37       1    1hz5              0.598672       0.140026

                         38       1    1hx5              0.427119       0.046733
                         38       1    1hx4y             0.427119       0.140200
                         38       1    1hx4z             0.427119       0.140200
                         38       1    1hx3y2            0.427119       0.214160
                         38       1    1hx3yz            0.427119       0.370935
                         38       1    1hx3z2            0.427119       0.214160
                         38       1    1hx2y3            0.427119       0.214160
                         38       1    1hx2y2z           0.427119       0.478876
                         38       1    1hx2yz2           0.427119       0.478876
                         38       1    1hx2z3            0.427119       0.214160
                         38       1    1hxy4             0.427119       0.140200
                         38       1    1hxy3z            0.427119       0.370935
                         38       1    1hxy2z2           0.427119       0.478876
                         38       1    1hxyz3            0.427119       0.370935
                         38       1    1hxz4             0.427119       0.140200
                         38       1    1hy5              0.427119       0.046733
                         38       1    1hy4z             0.427119       0.140200
                         38       1    1hy3z2            0.427119       0.214160
                         38       1    1hy2z3            0.427119       0.214160
                         38       1    1hyz4             0.427119       0.140200
                         38       1    1hz5              0.427119       0.046733

                         39       1    1ix6              0.598672       0.065334
                         39       1    1ix5y             0.598672       0.216687
                         39       1    1ix5z             0.598672       0.216687
                         39       1    1ix4y2            0.598672       0.375313
                         39       1    1ix4yz            0.598672       0.650061
                         39       1    1ix4z2            0.598672       0.375313
                         39       1    1ix3y3            0.598672       0.444076
                         39       1    1ix3y2z           0.598672       0.992984
                         39       1    1ix3yz2           0.598672       0.992984
                         39       1    1ix3z3            0.598672       0.444076
                         39       1    1ix2y4            0.598672       0.375313
                         39       1    1ix2y3z           0.598672       0.992984
                         39       1    1ix2y2z2          0.598672       1.281937
                         39       1    1ix2yz3           0.598672       0.992984
                         39       1    1ix2z4            0.598672       0.375313
                         39       1    1ixy5             0.598672       0.216687
                         39       1    1ixy4z            0.598672       0.650061
                         39       1    1ixy3z2           0.598672       0.992984
                         39       1    1ixy2z3           0.598672       0.992984
                         39       1    1ixyz4            0.598672       0.650061
                         39       1    1ixz5             0.598672       0.216687
                         39       1    1iy6              0.598672       0.065334
                         39       1    1iy5z             0.598672       0.216687
                         39       1    1iy4z2            0.598672       0.375313
                         39       1    1iy3z3            0.598672       0.444076
                         39       1    1iy2z4            0.598672       0.375313
                         39       1    1iyz5             0.598672       0.216687
                         39       1    1iz6              0.598672       0.065334

     The atoms of this atomic kind are PAW atoms (GAPW):
       Hard Gaussian function radius:                                      1.512
       Rho0 radius:                                                        1.512
       Maximum GTO radius used for PAW projector construction:            24.566

     GAPW Soft Basis Set                                          def2-QZVP_soft

       Number of orbital shell sets:                                          13
       Number of orbital shells:                                              13
       Number of primitive Cartesian functions:                               16
       Number of Cartesian basis functions:                                   40
       Number of spherical basis functions:                                   35
       Norm type:                                                              2

       Normalised Cartesian orbitals:

                        Set   Shell   Orbital            Exponent    Coefficient

                          1       1    1s                2.602704       0.544460
                                                         1.089725       0.321097

                          2       1    1s                1.235639       0.753703

                          3       1    1s                0.460675       0.398525

                          4       1    1s                0.096617       0.123510

                          5       1    1s                0.045915       0.070693

                          6       1    1s                0.021140       0.039513

                          7       1    1px               3.260511       0.222231
                                                         0.650030       0.162952
                                                         0.169417       0.133843
                          7       1    1py               3.260511       0.222231
                                                         0.650030       0.162952
                                                         0.169417       0.133843
                          7       1    1pz               3.260511       0.222231
                                                         0.650030       0.162952
                                                         0.169417       0.133843

                          8       1    1px               0.055732       0.038599
                          8       1    1py               0.055732       0.038599
                          8       1    1pz               0.055732       0.038599

                          9       1    1px               0.020490       0.011050
                          9       1    1py               0.020490       0.011050
                          9       1    1pz               0.020490       0.011050

                         10       1    1px               3.327000       6.404808
                         10       1    1py               3.327000       6.404808
                         10       1    1pz               3.327000       6.404808

                         11       1    1dx2              0.230000       0.125728
                         11       1    1dxy              0.230000       0.217768
                         11       1    1dxz              0.230000       0.217768
                         11       1    1dy2              0.230000       0.125728
                         11       1    1dyz              0.230000       0.217768
                         11       1    1dz2              0.230000       0.125728

                         12       1    1dx2              0.075700       0.017982
                         12       1    1dxy              0.075700       0.031145
                         12       1    1dxz              0.075700       0.031145
                         12       1    1dy2              0.075700       0.017982
                         12       1    1dyz              0.075700       0.031145
                         12       1    1dz2              0.075700       0.017982

                         13       1    1fx3              0.135000       0.016263
                         13       1    1fx2y             0.135000       0.036366
                         13       1    1fx2z             0.135000       0.036366
                         13       1    1fxy2             0.135000       0.036366
                         13       1    1fxyz             0.135000       0.062987
                         13       1    1fxz2             0.135000       0.036366
                         13       1    1fy3              0.135000       0.016263
                         13       1    1fy2z             0.135000       0.036366
                         13       1    1fyz2             0.135000       0.036366
                         13       1    1fz3              0.135000       0.016263

     AE Potential information for                                            ALL

       Description:                                       All-electron potential
                                          Krack, Parrinello, PCCP 2, 2105 (2000)

       Gaussian exponent of the core charge distribution:               3.125000
       Electronic configuration (s p d ...):                           3   0   0


 MOLECULE KIND INFORMATION


 All atoms are their own molecule, skipping detailed information


 TOTAL NUMBERS AND MAXIMUM NUMBERS

  Total number of            - Atomic kinds:                                   1
                             - Atoms:                                          2
                             - Shell sets:                                    26
                             - Shells:                                        26
                             - Primitive Cartesian functions:                 48
                             - Cartesian basis functions:                     80
                             - Spherical basis functions:                     70

  Maximum angular momentum of the orbital basis functions:                     3


 MODULE QUICKSTEP:  ATOMIC COORDINATES IN angstrom

  Atom  Kind  Element       X           Y           Z          Z(eff)       Mass

       1     1 Li   3    8.000000    8.000000    6.663550      3.00       6.9410
       2     1 Li   3    8.000000    8.000000    9.336450      3.00       6.9410




 SCF PARAMETERS         Density guess:                                   RESTART
                        --------------------------------------------------------
                        max_scf:                                             200
                        max_scf_history:                                       0
                        max_diis:                                              4
                        --------------------------------------------------------
                        eps_scf:                                        1.00E-06
                        eps_scf_history:                                0.00E+00
                        eps_diis:                                       1.00E-01
                        eps_eigval:                                     1.00E-05
                        --------------------------------------------------------
                        level_shift [a.u.]:                                 0.00
                        --------------------------------------------------------
                        Mixing method:                           DIRECT_P_MIXING
                        --------------------------------------------------------
                        No outer SCF

 PW_GRID| Information for grid number                                          1
 PW_GRID| Grid distributed over                                    40 processors
 PW_GRID| Real space group dimensions                                    40    1
 PW_GRID| the grid is blocked:                                                NO
 PW_GRID| Cutoff [a.u.]                                                    400.0
 PW_GRID| spherical cutoff:                                                   NO
 PW_GRID|   Bounds   1           -144     143                Points:         288
 PW_GRID|   Bounds   2           -144     143                Points:         288
 PW_GRID|   Bounds   3           -144     143                Points:         288
 PW_GRID| Volume element (a.u.^3)  0.1157E-02     Volume (a.u.^3)     27641.1785
 PW_GRID| Grid span                                                    FULLSPACE
 PW_GRID|   Distribution                         Average         Max         Min
 PW_GRID|   G-Vectors                           597196.8      597312      597024
 PW_GRID|   G-Rays                                2073.6        2074        2073
 PW_GRID|   Real Space Points                   597196.8      663552      580608

 PW_GRID| Information for grid number                                          2
 PW_GRID| Grid distributed over                                    40 processors
 PW_GRID| Real space group dimensions                                    40    1
 PW_GRID| the grid is blocked:                                                NO
 PW_GRID| Cutoff [a.u.]                                                    200.0
 PW_GRID| spherical cutoff:                                                   NO
 PW_GRID|   Bounds   1           -100      99                Points:         200
 PW_GRID|   Bounds   2           -100      99                Points:         200
 PW_GRID|   Bounds   3           -100      99                Points:         200
 PW_GRID| Volume element (a.u.^3)  0.3455E-02     Volume (a.u.^3)     27641.1785
 PW_GRID| Grid span                                                    FULLSPACE
 PW_GRID|   Distribution                         Average         Max         Min
 PW_GRID|   G-Vectors                           200000.0      200600      199600
 PW_GRID|   G-Rays                                1000.0        1003         998
 PW_GRID|   Real Space Points                   200000.0      200000      200000

 PW_GRID| Information for grid number                                          3
 PW_GRID| Grid distributed over                                    40 processors
 PW_GRID| Real space group dimensions                                    40    1
 PW_GRID| the grid is blocked:                                                NO
 PW_GRID| Cutoff [a.u.]                                                     66.7
 PW_GRID| spherical cutoff:                                                   NO
 PW_GRID|   Bounds   1            -60      59                Points:         120
 PW_GRID|   Bounds   2            -60      59                Points:         120
 PW_GRID|   Bounds   3            -60      59                Points:         120
 PW_GRID| Volume element (a.u.^3)  0.1600E-01     Volume (a.u.^3)     27641.1785
 PW_GRID| Grid span                                                    FULLSPACE
 PW_GRID|   Distribution                         Average         Max         Min
 PW_GRID|   G-Vectors                            43200.0       43560       42960
 PW_GRID|   G-Rays                                 360.0         363         358
 PW_GRID|   Real Space Points                    43200.0       43200       43200

 PW_GRID| Information for grid number                                          4
 PW_GRID| Grid distributed over                                    40 processors
 PW_GRID| Real space group dimensions                                    40    1
 PW_GRID| the grid is blocked:                                                NO
 PW_GRID| Cutoff [a.u.]                                                     22.2
 PW_GRID| spherical cutoff:                                                   NO
 PW_GRID|   Bounds   1            -36      35                Points:          72
 PW_GRID|   Bounds   2            -36      35                Points:          72
 PW_GRID|   Bounds   3            -36      35                Points:          72
 PW_GRID| Volume element (a.u.^3)  0.7406E-01     Volume (a.u.^3)     27641.1785
 PW_GRID| Grid span                                                    FULLSPACE
 PW_GRID|   Distribution                         Average         Max         Min
 PW_GRID|   G-Vectors                             9331.2        9432        9288
 PW_GRID|   G-Rays                                 129.6         131         129
 PW_GRID|   Real Space Points                     9331.2       10368        5184

 PW_GRID| Information for grid number                                          5
 PW_GRID| Grid distributed over                                    40 processors
 PW_GRID| Real space group dimensions                                    40    1
 PW_GRID| the grid is blocked:                                                NO
 PW_GRID| Cutoff [a.u.]                                                      7.4
 PW_GRID| spherical cutoff:                                                   NO
 PW_GRID|   Bounds   1            -20      19                Points:          40
 PW_GRID|   Bounds   2            -20      19                Points:          40
 PW_GRID|   Bounds   3            -20      19                Points:          40
 PW_GRID| Volume element (a.u.^3)  0.4319         Volume (a.u.^3)     27641.1785
 PW_GRID| Grid span                                                    FULLSPACE
 PW_GRID|   Distribution                         Average         Max         Min
 PW_GRID|   G-Vectors                             1600.0        1720        1520
 PW_GRID|   G-Rays                                  40.0          43          38
 PW_GRID|   Real Space Points                     1600.0        1600        1600

 POISSON| Solver                                          Martyna-Tuckerman (MT)
 POISSON| MT| Alpha                                                        7.000
 POISSON| MT| Relative cutoff                                                2.0
 POISSON| Periodicity                                                       NONE

 RS_GRID| Information for grid number                                          2
 RS_GRID|   Bounds   1           -100      99                Points:         200
 RS_GRID|   Bounds   2           -100      99                Points:         200
 RS_GRID|   Bounds   3           -100      99                Points:         200
 RS_GRID| Real space distribution over                                  2 groups
 RS_GRID| Real space distribution along direction                              1
 RS_GRID| Border size                                                         23
 RS_GRID| Real space distribution over                                  4 groups
 RS_GRID| Real space distribution along direction                              2
 RS_GRID| Border size                                                         23
 RS_GRID| Real space distribution over                                  5 groups
 RS_GRID| Real space distribution along direction                              3
 RS_GRID| Border size                                                         23
 RS_GRID|   Distribution                         Average         Max         Min
 RS_GRID|   Planes                                 146.0         146         146
 RS_GRID|   Distribution                         Average         Max         Min
 RS_GRID|   Planes                                  96.0          96          96
 RS_GRID|   Distribution                         Average         Max         Min
 RS_GRID|   Planes                                  86.0          86          86

 RS_GRID| Information for grid number                                          3
 RS_GRID|   Bounds   1            -60      59                Points:         120
 RS_GRID|   Bounds   2            -60      59                Points:         120
 RS_GRID|   Bounds   3            -60      59                Points:         120
 RS_GRID| Real space distribution over                                  2 groups
 RS_GRID| Real space distribution along direction                              1
 RS_GRID| Border size                                                         23
 RS_GRID| Real space distribution over                                  4 groups
 RS_GRID| Real space distribution along direction                              2
 RS_GRID| Border size                                                         23
 RS_GRID| Real space distribution over                                  5 groups
 RS_GRID| Real space distribution along direction                              3
 RS_GRID| Border size                                                         23
 RS_GRID|   Distribution                         Average         Max         Min
 RS_GRID|   Planes                                 106.0         106         106
 RS_GRID|   Distribution                         Average         Max         Min
 RS_GRID|   Planes                                  76.0          76          76
 RS_GRID|   Distribution                         Average         Max         Min
 RS_GRID|   Planes                                  70.0          70          70

 RS_GRID| Information for grid number                                          4
 RS_GRID|   Bounds   1            -36      35                Points:          72
 RS_GRID|   Bounds   2            -36      35                Points:          72
 RS_GRID|   Bounds   3            -36      35                Points:          72
 RS_GRID| Real space fully replicated
 RS_GRID| Group size                                                           1

 RS_GRID| Information for grid number                                          5
 RS_GRID|   Bounds   1            -20      19                Points:          40
 RS_GRID|   Bounds   2            -20      19                Points:          40
 RS_GRID|   Bounds   3            -20      19                Points:          40
 RS_GRID| Real space fully replicated
 RS_GRID| Group size                                                           1
 
 RI-RPA| using GPW style
 

  HFX_INFO| Replica ID:                                                        1
  HFX_INFO| EPS_SCHWARZ:                                                 2.0E-17
  HFX_INFO| EPS_SCHWARZ_FORCES                                           1.0E-06
  HFX_INFO| EPS_STORAGE_SCALING:                                         1.0E+00
  HFX_INFO| NBINS:                                                            64
  HFX_INFO| BLOCK_SIZE:                                                        1
  HFX_INFO| FRACTION:                                               1.0000000000
  HFX_INFO| Interaction Potential:                                       COULOMB
  HFX_INFO| Number of periodic shells considered:                           NONE
  HFX_INFO| Number of periodic cells considered:                            NONE


 Number of electrons:                                                          6
 Number of occupied orbitals:                                                  3
 Number of molecular orbitals:                                                 3

 Number of orbital functions:                                                 70
 Number of independent orbital functions:                                     70

 Extrapolation method: initial_guess


 SCF WAVEFUNCTION OPTIMIZATION

  Step     Update method      Time    Convergence         Total energy    Change
  ------------------------------------------------------------------------------
     1 P_Mix/Diag. 0.40E+00    1.6     0.00000001       -14.9557749739 -1.50E+01

  *** SCF run converged in     1 steps ***


  Electronic density on regular grids:         -4.6322745625        1.3677254375
  Core density on regular grids:                6.0000000000        0.0000000000
  Hard and soft densities (Lebedev):           -7.0822573909       -5.7145319543
  Total Rho_soft + Rho1_hard - Rho1_soft       -5.9999999991
  Total charge density (r-space):               0.0000000009
  Total Rho_soft + Rho0_soft (g-space):        -0.0000000469

  Overlap energy of the core charge distribution:               0.00000000000000
  Self energy of the core charge distribution:                -12.69426562982452
  Core Hamiltonian energy:                                      0.45155611412632
  Hartree energy:                                               3.15633401289156
  Exchange-correlation energy:                                 -1.83147933163561

  GAPW| Exc from hard and soft atomic rho1:                    -1.80007429346856
  GAPW| local Eh = 1 center integrals:                         -2.23784584602735

  Total energy:                                               -14.95577497393815

 !-----------------------------------------------------------------------------!
                     Mulliken Population Analysis

 #  Atom  Element  Kind  Atomic population                           Net charge
       1     Li       1          3.000000                             -0.000000
       2     Li       1          3.000000                              0.000000
 # Total charge                              6.000000                 -0.000000

 !-----------------------------------------------------------------------------!

 !-----------------------------------------------------------------------------!
                           Hirshfeld Charges

  #Atom  Element  Kind  Ref Charge     Population                    Net charge
      1       Li     1       3.000          2.989                         0.011
      2       Li     1       3.000          2.989                         0.011

  Total Charge                                                            0.022
 !-----------------------------------------------------------------------------!


 RI-RPA section
 --------------

  Used number of processes per group:                                          1
  Maximum allowed memory usage per MPI processes:                     200.00 MiB

  HFX_MEM_INFO| Est. max. program size before HFX [MiB]:                     273
  HFX_MEM_INFO| Number of cart. primitive ERI's calculated:             52601777
  HFX_MEM_INFO| Number of sph. ERI's calculated:                         9003039
  HFX_MEM_INFO| Number of sph. ERI's stored in-core:                     9003039
  HFX_MEM_INFO| Number of sph. ERI's stored on disk:                           0
  HFX_MEM_INFO| Number of sph. ERI's calculated on the fly:                    0
  HFX_MEM_INFO| Total memory consumption ERI's RAM [MiB]:                     52
  HFX_MEM_INFO| Whereof max-vals [MiB]:                                        1
  HFX_MEM_INFO| Total compression factor ERI's RAM:                         1.34
  HFX_MEM_INFO| Total memory consumption ERI's disk [MiB]:                     0
  HFX_MEM_INFO| Total compression factor ERI's disk:                        0.00
  HFX_MEM_INFO| Size of density/Fock matrix [MiB]:                             0
  HFX_MEM_INFO| Size of buffers [MiB]:                                         0
  HFX_MEM_INFO| Est. max. program size after HFX  [MiB]:                     275

  GPW_INFO| Density cutoff [a.u.]:                                         150.0
  GPW_INFO| Relative density cutoff [a.u.]:                                 25.0
  RI_INFO| Cholesky decomposition group size:                                 40
  RI_INFO| Number of groups for auxiliary basis functions                     40
  RI_INFO| Occupied  basis set size:                                           3
  RI_INFO| Virtual   basis set size:                                          67
  RI_INFO| Auxiliary basis set size:                                         386
  RI_INFO| Total memory for (ia|K) integrals:                           0.59 MiB
  RI_INFO| Group size for frequency integration:                              40
  INTEG_INFO| MINIMAX quadrature
  INTEG_INFO| Number of integration points:                                   14
  INTEG_INFO| Number of integration points per RPA group:                     14
  MATRIX_INFO| Number row processes:                                           5
  MATRIX_INFO| Number column processes:                                        8
  MATRIX_INFO| Row block size:                                                20
  MATRIX_INFO| Column block size:                                             24
 Emin =   5.2819438513250341E-002 Emax =   10.850614471302489      Range =   205.42843272710087     
  INTEG_INFO| Range for the minimax approximation:                      205.4284
  INTEG_INFO| Minimax parameters:                    Weights           Abscissas
                                                1.6466495604        0.2028422358
                                                1.9461821545        0.6452499428
                                                2.6166305929        1.2066092543
                                                3.8164481178        1.9973370085
                                                5.8319003929        3.1822441371
                                                9.1579318742        5.0215487224
                                               14.6464587560        7.9397439782
                                               23.7792535496       12.6454236464
                                               39.1946252902       20.3470361260
                                               65.8176956881       33.1638257043
                                              113.8432920791       55.0035904711
                                              209.6014217668       93.9199453864
                                              455.3879493531      171.3777924956
                                             1692.4361038505      389.1614230248
  INTEG_INFO| Range for the minimax approximation:                      205.4284
  INTEG_INFO| Gap:                                                        0.0528
  INTEG_INFO| Minimax parameters of the time grid:   Weights           Abscissas
                                                0.0029306613        0.0011341753
                                                0.0072456763        0.0061578111
                                                0.0127714965        0.0160232186
                                                0.0207628169        0.0325139600
                                                0.0332428135        0.0590344508
                                                0.0532093073        0.1014808222
                                                0.0849944669        0.1693701417
                                                0.1350034997        0.2775089125
                                                0.2129126774        0.4486211323
                                                0.3336330439        0.7175096173
                                                0.5211919859        1.1379773383
                                                0.8187445812        1.7960648128
                                                1.3243539635        2.8429132945
                                                2.4068261332        4.6218564467
 
 tau scaled:   2.1472686632883639E-002  0.11658228949576752       0.30335836651089992       0.61556807374719646        1.1176652477423834        1.9212779439817240        3.2065873185005302        5.2539163664313540        8.4934854459691493        13.584196225977269        21.544669354994376        34.003860384794770        53.823239597311115        87.502945445376142     
 
 
 omega scaled:   1.0714012999795970E-002   3.4081739679593798E-002   6.3732423316331471E-002  0.10549821930839248       0.16808434853297904       0.26523538398646374       0.41937281886766109       0.66792417676602633        1.0747190235823001        1.7516946526538499        2.9052587648964212        4.9607987805066944        9.0520787732604369        20.555287855187530     
 
 
 weights_cos_tf_t_to_w
  0.11120549456198517       0.11032971176028851       0.11184987340105988       0.10999668829402477       0.11193632945032433       0.11004542620077520       0.11184353691326038       0.11012372942016499       0.11181543531595776       0.11007169016262019       0.11195706267188602       0.10981676168382515       0.11284586616876681       0.10352487296074903       0.27346131618872932       0.27677651442062501       0.27102079425495518       0.27804057292378148       0.27068725096696050       0.27786651737013757       0.27102061429913071       0.27760338436575810       0.27105713612140059       0.27796871026254566       0.27003062629337932       0.28077089413763601       0.25102792547540964       0.17110781118794227       0.48560557187826148       0.47814345469747543       0.49110622205176813       0.47527822812717752       0.49189485878888362       0.47560347790022672       0.49126700690730202       0.47594575403118033       0.49177493997261013       0.47341588131756357       0.50129467735676592       0.19364540268309974       0.41370129252739468        4.1162836011460237E-002  0.78233424051905198       0.79658459596371900       0.77179827388403877       0.80214410673004732       0.77011881495954526       0.80184691966549049       0.77066914194016856       0.80268999217987413       0.76532067586580088       0.82957285997628227       0.93640600404563845       0.70416356180266981       0.25724092503302581       -1.2287529442691411E-002   1.2655180508139348        1.2403638118841858        1.2842339350213718        1.2302097295231986        1.2879074179092938        1.2292967729939990        1.2902145386390498        1.2181070478956417        1.3578368892528065        1.4018996083316391        1.1369555657433519       0.63688844153119262        8.2759930442904334E-002  -8.8218505730047678E-003   2.0033623890081631        2.0457243006418371        1.9714242099022778        2.0640855694066178        1.9624013842322072        2.0722203409966675        1.9386614329235499        2.2325005121318076        2.2034791901063744        1.8221357944477770        1.1875665146530681       0.17010928920862683       0.20847874604403666        1.1846841802816220E-002   3.2368835943889906        3.1675003154281454        3.2906784999542742        3.1326552921663251        3.3177460151164593        3.0808126980575383        3.6865578929766802        3.4916040369996599        2.9088337980215502        2.0391320508618933       0.35093927130462049       -6.3129041084368509E-002   1.6225995061375675E-002  -1.7163067700311011E-003   5.0820876996859052        5.1945666159000927        4.9893667899635386        5.2710710454148666        4.8754362420210038        6.1039701911910331        5.5207845963848738        4.6135005611790021        3.3851109939941466       0.66340825217926380      -0.14310941072888364       -5.1614386520897566E-002  -8.4560018223386671E-003  -3.3825302862302304E-003   8.1096151320472760        7.9250476272238322        8.2846185451783416        7.6879794352879669        10.044052759833558        8.6816421230607315        7.2615313487351472        5.5085565605100353        1.1927535149640631      -0.35943931471055879       -7.1819969954151464E-002  -7.3010516447902837E-002  -6.7651466132256963E-002   4.6365605100938869E-003   12.555209923719728        12.874309454283154        12.128123525387617        15.799821353185120        13.578900202425659        11.356195788578699        8.8324673301257484        2.0784671589125434      -0.96610396301587620      -0.52206458979997894      -0.21581326609621529        9.7300338903034134E-002  -5.2300357815944594E-003   9.6536417913412130E-004   19.868304344544498        19.228694323182619        22.855704219871864        21.202467240806914        17.725513818359687        13.997159997054167        3.5232382644650624       -2.9570460216137238       0.53674254163092538        7.8583832132126039E-002  -3.2825046343062186E-002   1.2454309451384640E-002  -4.1963800690199941E-003  -8.0030463482460841E-004   30.742878308284315        32.850041508739373        33.471103353960274        27.905134695561983        21.992877312715393        5.7570488592883686       -10.084985735251747       0.48231691068109334       0.33966633804991464        6.0178472427270008E-002 -0.15577717768939953       -1.8732599291224467E-002   3.6248339432364877E-003  -1.5899303415341046E-002   50.818250621821548        57.519361770890228        45.360481969455961        34.332151077245129        8.7967469649663528       -14.439799777944074       0.72011776121180304       -1.3115991722356113      -0.38520103977177145        4.9691708397754983E-002  -3.0317922233057244E-002  -9.6278402842025265E-003   3.4105495179699197E-003   7.5845632614359631E-004   87.151977281501757        81.403751001015266        51.653971423640897        11.546718348451160       -5.5490931489602566        2.8138333768704644       0.72944849431869974       0.56468480997836590        9.1105849660266844E-002   5.6516129085774122E-002  -2.1978755021812096E-002  -1.0586895658899122E-002   3.4011733340478401E-003   7.3370878151802271E-003
 
 weights_cos_tf_w_to_t
[...]
     6 ( vir )     -1.297     -1.319      0.000      2.594      1.000     -0.022
     7 ( vir )     -0.887     -1.915      0.000      2.639      1.000     -0.163
     8 ( vir )      0.064     -1.618      0.000      2.074      1.000      0.521
     9 ( vir )      0.064     -1.618      0.000      2.074      1.000      0.521
    10 ( vir )      0.675     -0.378      0.000      1.090      1.000      1.387
    11 ( vir )      0.678     -0.650      0.000      1.550      1.000      1.579
    12 ( vir )      1.097     -0.927      0.000      1.794      1.000      1.965
    13 ( vir )      1.097     -0.927      0.000      1.794      1.000      1.965
   
  GW HOMO-LUMO gap (eV)                                                     4.31
  

  Total RI-RPA Time=                                                   10.157069
  RI-RPA energy  =                                             -0.19948762362605

  Total EXX Time=                                                       2.960751
  EXX energy  =                                                -3.54255664121484

 ENERGY| Total FORCE_EVAL ( QS ) energy (a.u.):              -15.066265608268711


 -------------------------------------------------------------------------------
 -                                                                             -
 -                                DBCSR STATISTICS                             -
 -                                                                             -
 -------------------------------------------------------------------------------
 COUNTER                                    TOTAL       BLAS       SMM       ACC
 flops    35 x     3 x    35                29400     100.0%      0.0%      0.0%
 flops    35 x    35 x     3                44100     100.0%      0.0%      0.0%
 flops    35 x    35 x    35               343000     100.0%      0.0%      0.0%
 flops    70 x    70 x    35               686000     100.0%      0.0%      0.0%
 flops   386 x    70 x    35           1376939200     100.0%      0.0%      0.0%
 flops   193 x   193 x   193           1610348768     100.0%      0.0%      0.0%
 flops    35 x   315 x    35           2463426000     100.0%      0.0%      0.0%
 flops   386 x    70 x   193           3796418080     100.0%      0.0%      0.0%
 flops   193 x   193 x   112           4672514560     100.0%      0.0%      0.0%
 flops    35 x   350 x    35           5083260000     100.0%      0.0%      0.0%
 flops   193 x   193 x   126          15769736640     100.0%      0.0%      0.0%
 flops inhomo. stacks                           0       0.0%      0.0%      0.0%
 flops total                        34.773746E+09     100.0%      0.0%      0.0%
 flops max/rank                      7.505976E+09     100.0%      0.0%      0.0%
 matmuls inhomo. stacks                         0       0.0%      0.0%      0.0%
 matmuls total                              12580     100.0%      0.0%      0.0%
 number of processed stacks                  2848     100.0%      0.0%      0.0%
 average stack size                                     4.4       0.0       0.0
 marketing flops                    34.905629E+09
 -------------------------------------------------------------------------------
 # multiplications                            608
 max memory usage/rank             333.938688E+06
 # max total images/rank                        5
 # max 3D layers                                1
 # MPI messages exchanged                  745800
 MPI messages size (bytes):
  total size                         3.022952E+09
  min size                           0.000000E+00
  max size                         595.984000E+03
  average size                       4.053301E+03
 MPI breakdown and total messages size (bytes):
             size <=      128              732264                        0
       128 < size <=     8192                  30                    45360
      8192 < size <=    32768                2250                 44041200
     32768 < size <=   131072                7644                826163520
    131072 < size <=  4194304                3612               2152694208
   4194304 < size <= 16777216                   0                        0
  16777216 < size                               0                        0
 -------------------------------------------------------------------------------

 *** WARNING in dbcsr_mm.F:278 :: Using a non-square number of MPI ranks ***
 *** might lead to poor performance. Used ranks: 40 Suggested: 36 81     ***

 -------------------------------------------------------------------------------
 -                                                                             -
 -                      DBCSR MESSAGE PASSING PERFORMANCE                      -
 -                                                                             -
 -------------------------------------------------------------------------------

 ROUTINE             CALLS      AVE VOLUME [Bytes]
 MP_Group               26
 MP_Bcast               12                     12.
 MP_Allreduce         3429                      8.
 MP_Alltoall          2008                  62719.
 MP_Wait             41712
 MP_ISend            39722                   9699.
 MP_IRecv            39722                     61.
 MP_Memory           61824
 -------------------------------------------------------------------------------


 MEMORY| Estimated peak process memory [MiB]                                 319

 -------------------------------------------------------------------------------
 ----                             MULTIGRID INFO                            ----
 -------------------------------------------------------------------------------
 count for grid        1:          67142          cutoff [a.u.]          200.00
 count for grid        2:          11380          cutoff [a.u.]           66.67
 count for grid        3:          10064          cutoff [a.u.]           22.22
 count for grid        4:          14447          cutoff [a.u.]            7.41
 total gridlevel count  :         103033

 -------------------------------------------------------------------------------
 -                                                                             -
 -                         MESSAGE PASSING PERFORMANCE                         -
 -                                                                             -
 -------------------------------------------------------------------------------

 ROUTINE             CALLS      AVE VOLUME [Bytes]
 MP_Group                5
 MP_Bcast              118                2516497.
 MP_Allreduce          348                   9963.
 MP_Sync                72
 MP_Alltoall           123                2308211.
 MP_ISendRecv          468                  36985.
 MP_Wait              1106
 MP_comm_split          10
 MP_ISend             4976                  37743.
 MP_IRecv             3892                 206402.
 MP_Recv                 2                    560.
 -------------------------------------------------------------------------------


 -------------------------------------------------------------------------------
 -                                                                             -
 -                           R E F E R E N C E S                               -
 -                                                                             -
 -------------------------------------------------------------------------------
 
 CP2K version 7.0 (Development Version), the CP2K developers group (2018).
 CP2K is freely available from https://www.cp2k.org/ .

 Schuett, Ole; Messmer, Peter; Hutter, Juerg; VandeVondele, Joost. 
 Electronic Structure Calculations on Graphics Processing Units, John Wiley & Sons, Ltd, 173-190 (2016). 
 GPU-Accelerated Sparse Matrix-Matrix Multiplication for Linear Scaling Density Functional Theory.
 https://dx.doi.org/10.1002/9781118670712.ch8


 Del Ben, M; Schuett, O; Wentz, T; Messmer, P; Hutter, J;
 VandeVondele, J. 
 COMPUTER PHYSICS COMMUNICATIONS, 187, 120-129 (2015). 
 Enabling simulation at the fifth rung of DFT: Large scale RPA
 calculations with excellent time to solution.
 https://dx.doi.org/10.1016/j.cpc.2014.10.021


 Borstnik, U; VandeVondele, J; Weber, V; Hutter, J. 
 PARALLEL COMPUTING, 40 (5-6), 47-58 (2014). 
 Sparse matrix multiplication: The distributed block-compressed sparse
 row library.
 https://dx.doi.org/10.1016/j.parco.2014.03.012


 Hutter, J; Iannuzzi, M; Schiffmann, F; VandeVondele, J. 
 WILEY INTERDISCIPLINARY REVIEWS-COMPUTATIONAL MOLECULAR SCIENCE, 4 (1), 15-25 (2014). 
 CP2K: atomistic simulations of condensed matter systems.
 https://dx.doi.org/10.1002/wcms.1159


 Del Ben, M; Hutter, J; VandeVondele, J. 
 JOURNAL OF CHEMICAL THEORY AND COMPUTATION, 9 (6), 2654-2671 (2013). 
 Electron Correlation in the Condensed Phase from a Resolution of
 Identity Approach Based on the Gaussian and Plane Waves Scheme.
 https://dx.doi.org/10.1021/ct4002202


 Del Ben, M; Hutter, J; VandeVondele, J. 
 JOURNAL OF CHEMICAL THEORY AND COMPUTATION, 8 (11), 4177-4188 (2012). 
 Second-Order Moller-Plesset Perturbation Theory in the Condensed Phase:
 An Efficient and Massively Parallel Gaussian and Plane Waves Approach.
 https://dx.doi.org/10.1021/ct300531w


 Guidon, M; Hutter, J; VandeVondele, J. 
 JOURNAL OF CHEMICAL THEORY AND COMPUTATION, 5 (11), 3010-3021 (2009). 
 Robust Periodic Hartree-Fock Exchange for Large-Scale Simulations Using
 Gaussian Basis Sets.
 https://dx.doi.org/10.1021/ct900494g


 Guidon, M; Schiffmann, F; Hutter, J; VandeVondele, J. 
 JOURNAL OF CHEMICAL PHYSICS, 128 (21), 214104 (2008). 
 Ab initio molecular dynamics using hybrid density functionals.
 https://dx.doi.org/10.1063/1.2931945


 Frigo, M; Johnson, SG. 
 PROCEEDINGS OF THE IEEE, 93 (2), 216-231 (2005). 
 The design and implementation of FFTW3.
 https://dx.doi.org/10.1109/JPROC.2004.840301


 Lippert, G; Hutter, J; Parrinello, M. 
 THEORETICAL CHEMISTRY ACCOUNTS, 103 (2), 124-140 (1999). 
 The Gaussian and augmented-plane-wave density functional method for ab
 initio molecular dynamics simulations.
 https://dx.doi.org/10.1007/s002140050523


 Krack, M; Parrinello, M. 
 PHYSICAL CHEMISTRY CHEMICAL PHYSICS, 2 (10), 2105-2112 (2000). 
 All-electron ab-initio molecular dynamics.
 https://dx.doi.org/10.1039/b001167n


 Martyna, GJ; Tuckerman, ME. 
 JOURNAL OF CHEMICAL PHYSICS, 110 (6), 2810-2821 (1999). 
 A reciprocal space based method for treating long range interactions in
 ab initio and force-field-based calculations in clusters.
 https://dx.doi.org/10.1063/1.477923


 Perdew, JP; Burke, K; Ernzerhof, M. 
 PHYSICAL REVIEW LETTERS, 77 (18), 3865-3868 (1996). 
 Generalized gradient approximation made simple.
 https://dx.doi.org/10.1103/PhysRevLett.77.3865


 -------------------------------------------------------------------------------
 -                                                                             -
 -                                T I M I N G                                  -
 -                                                                             -
 -------------------------------------------------------------------------------
 SUBROUTINE                       CALLS  ASD         SELF TIME        TOTAL TIME
                                MAXIMUM       AVERAGE  MAXIMUM  AVERAGE  MAXIMUM
 CP2K                                 1  1.0    0.020    0.023   16.304   16.306
 qs_energies                          1  2.0    0.000    0.000   15.657   15.660
 mp2_main                             1  3.0    0.000    0.000   13.128   13.135
 mp2_gpw_main                         1  4.0    0.000    0.001   10.154   10.157
 rpa_ri_compute_en                    1  5.0    0.000    0.000    9.435    9.438
 rpa_num_int                          1  6.0    0.001    0.003    9.434    9.437
 dbcsr_multiply_generic             608  9.9    0.032    0.040    3.444    4.288
 GW_postprocessing                    1  7.0    0.000    0.000    3.782    3.782
 compute_self_energy_im_time_gw       1  8.0    0.002    0.002    3.781    3.781
 multiply_cannon                    608 10.9    0.102    0.123    2.265    3.539
 compute_vec_Sigma_x_minus_vxc_       1  4.0    0.000    0.000    2.961    2.961
 mp_waitall_1                     42370 13.4    1.158    2.525    1.158    2.525
 multiply_cannon_metrocomm3       11343 11.9    0.016    0.020    0.913    2.464
 integrate_four_center                1  5.0    0.002    0.003    2.330    2.330
 qs_ks_build_kohn_sham_matrix         2  6.0    0.001    0.001    2.242    2.242
 compute_self_energy_im_time_gw     182  9.0    0.001    0.001    1.511    1.990
 scf_env_do_scf                       1  3.0    0.000    0.000    1.907    1.907
 scf_env_do_scf_inner_loop            1  4.0    0.000    0.001    1.907    1.907
 multiply_cannon_metrocomm1       11343 11.9    0.007    0.009    0.185    1.676
 multiply_cannon_multrec          11343 11.9    0.217    1.613    0.547    1.621
 qs_ks_update_qs_env                  1  5.0    0.000    0.000    1.620    1.621
 rebuild_ks_matrix                    1  6.0    0.000    0.000    1.620    1.620
 mp_sum_d                           845  5.5    0.878    1.575    0.878    1.575
 mp_sum_dm                           18  7.6    1.088    1.567    1.088    1.567
 pw_transfer                         39  8.7    0.003    0.004    1.416    1.503
 mp_sum_l                          3000 10.8    0.893    1.494    0.893    1.494
 fft_wrap_pw1pw2                     31 10.0    0.000    0.001    1.386    1.469
 compute_mat_P_omega                  1  7.0    0.000    0.001    1.397    1.398
 dbcsr_trace_a_b_d                  367 10.0    0.002    0.021    0.716    1.367
 compute_self_energy_im_time_gw     182  9.0    0.000    0.001    0.698    1.348
 rpa_num_int_im_t_alloc_mat_gw        1  7.0    0.000    0.000    0.042    1.288
 allocate_matrices_gw_im_time         1  8.0    0.000    0.000    0.042    1.288
 get_mat_3c_overl_int_gw              1  9.0    0.000    0.000    0.042    1.288
 rpa_num_int_im_t_alloc_mat_24        1  7.0    0.000    0.000    1.250    1.285
 fill_mat_3c_overl_int_gw             1 10.0    0.000    0.000    0.037    1.283
 cp_fm_copy_general                   2  8.0    0.000    0.000    1.249    1.283
 cp_fm_start_copy_general             2  9.0    0.001    0.001    1.248    1.282
 mp_allgather_i                       4 10.0    1.248    1.281    1.248    1.281
 GW3c_fill_mat                        1 11.0    0.015    0.582    0.032    1.277
 fft_wrap_pw1pw2_200                 18 10.9    0.084    0.099    1.110    1.178
 fft3d_ps                            31 12.0    0.457    0.518    1.030    1.106
 powell_optimize                 191703  7.0    0.817    1.083    0.817    1.083
 compute_mat_P_omega_calc_P          14  8.0    0.000    0.000    0.783    1.065
 rs_pw_transfer                      22  8.7    0.001    0.001    0.998    1.059
 calc_screening_functions             1  6.0    0.329    0.394    0.831    1.020
 compute_self_energy_im_time_gw     182  9.0    0.001    0.001    0.662    0.881
 compute_self_energy_im_time_gw     182  9.0    0.001    0.001    0.854    0.863
 get_l_sq_wghts_cos_tf_t_to_w         1  7.0    0.308    0.845    0.846    0.847
 get_l_sq_wghts_sin_tf_t_to_w         1  7.0    0.299    0.843    0.844    0.845
 mp_sum_dv                           40  8.0    0.588    0.832    0.588    0.832
 get_l_sq_wghts_cos_tf_w_to_t         1  7.0    0.301    0.829    0.831    0.832
 make_m2s                          1216 10.9    0.025    0.028    0.553    0.799
 fill_mat_P_global_from_mat_P_l      14  9.0    0.000    0.000    0.515    0.797
 calc_pair_dist_radii                 1  6.0    0.286    0.351    0.600    0.778
 mp2_ri_gpw_compute_in                1  5.0    0.000    0.000    0.590    0.714
 mp_sync                             72  8.7    0.554    0.704    0.554    0.704
 integrate_four_center_load           1  6.0    0.000    0.000    0.363    0.663
 hfx_load_balance                     1  7.0    0.000    0.000    0.363    0.663
 qs_vxc_create                        2  7.0    0.000    0.000    0.656    0.656
 xc_vxc_pw_create                     1  9.0    0.006    0.008    0.655    0.656
 hfx_load_balance_range               1  8.0    0.001    0.008    0.346    0.647
 mp_waitany                         364 10.6    0.431    0.613    0.431    0.613
 qs_rho_update_rho                    2  5.0    0.000    0.000    0.593    0.593
 calculate_rho_elec                   2  6.0    0.010    0.090    0.590    0.591
 mp_alltoall_z22v                    31 14.0    0.441    0.582    0.441    0.582
 dbcsr_mm_multrec_finalize          608 12.9    0.003    0.005    0.330    0.579
 dbcsr_mm_sched_finalize            608 13.9    0.323    0.572    0.323    0.572
 mp_waitall_2                        84 11.0    0.497    0.557    0.497    0.557
 density_rs2pw                        2  7.0    0.000    0.000    0.536    0.556
 qs_init_subsys                       1  2.0    0.002    0.003    0.531    0.532
 integrate_four_center_main           1  6.0    0.000    0.000    0.070    0.525
 integrate_four_center_bin          128  7.0    0.070    0.525    0.070    0.525
 fill_Q_2_comm_data                  14 10.0    0.000    0.001    0.451    0.502
 sum_up_and_integrate                 2  7.0    0.002    0.003    0.473    0.491
 qs_env_setup                         1  3.0    0.000    0.000    0.473    0.491
 qs_env_rebuild_pw_env                2  3.5    0.000    0.000    0.472    0.490
 pw_env_rebuild                       1  5.0    0.001    0.001    0.472    0.490
 integrate_v_rspace                   2  8.0    0.005    0.046    0.470    0.489
 rs_pw_transfer_PW2RS_200             5  9.6    0.189    0.253    0.409    0.487
 compute_3c_overlap_int               1  6.0    0.125    0.173    0.354    0.478
 make_images                       1216 11.9    0.036    0.040    0.433    0.457
 yz_to_x                             16 12.9    0.063    0.083    0.352    0.442
 potential_pw2rs                      2  9.0    0.000    0.000    0.441    0.441
 pw_grid_setup                        5  6.0    0.000    0.000    0.439    0.440
 pw_grid_setup_internal               5  7.0    0.008    0.011    0.439    0.440
 mp_comm_split_direct                 8  6.6    0.261    0.435    0.261    0.435
 rs_pw_transfer_RS2PW_200             5  9.2    0.188    0.238    0.379    0.399
 mp_sum_iv                          109  9.1    0.349    0.383    0.349    0.383
 dbcsr_iterator_start            358938 12.2    0.013    0.299    0.016    0.381
 fill_Q_2_fill_buffer                14 10.0    0.046    0.376    0.046    0.376
 prepare_gapw_den                     2  7.0    0.000    0.000    0.361    0.368
 sync_does_mat_P_T_tau_have_blo      14  8.0    0.000    0.001    0.330    0.364
 mp_allgather_i34                   608 11.9    0.339    0.362    0.339    0.362
 xc_rho_set_and_dset_create           1 10.0    0.004    0.005    0.318    0.358
 pw_poisson_solve                     3  6.0    0.042    0.048    0.348    0.350
 rpa_num_int_RPA_matrix_operati      14  7.0    0.001    0.001    0.341    0.345
 dbcsr_iterator_stop             358938 12.2    0.011    0.272    0.013    0.336
 init_scf_run                         1  3.0    0.000    0.000    0.326    0.326
 -------------------------------------------------------------------------------

 The number of warnings for this run is : 2
 
 -------------------------------------------------------------------------------
  **** **** ******  **  PROGRAM ENDED AT                 2019-05-31 16:24:08.554
 ***** ** ***  *** **   PROGRAM RAN ON                                    tcopt4
 **    ****   ******    PROGRAM RAN BY                                   wilhelm
 ***** **    ** ** **   PROGRAM PROCESS ID                                 76818
  **** **  *******  **  PROGRAM STOPPED IN /data/wilhelm/2_job_test/11_GW100/3_c
                                           alcs/07_Li2
