 DBCSR| CPU Multiplication driver                                           BLAS
 DBCSR| Multrec recursion limit                                              512
 DBCSR| Multiplication stack size                                           1000
 DBCSR| Maximum elements for images                                    UNLIMITED
 DBCSR| Multiplicative factor virtual images                                   1
 DBCSR| Use multiplication densification                                       T
 DBCSR| Multiplication size stacks                                             3
 DBCSR| Number of 3D layers                                               SINGLE
 DBCSR| Use MPI memory allocation                                              T
 DBCSR| Use RMA algorithm                                                      F
 DBCSR| Use Communication thread                                               T
 DBCSR| Communication thread load                                             87


  **** **** ******  **  PROGRAM STARTED AT               2019-06-07 03:16:56.273
 ***** ** ***  *** **   PROGRAM STARTED ON                                tcopt4
 **    ****   ******    PROGRAM STARTED BY                               wilhelm
 ***** **    ** ** **   PROGRAM PROCESS ID                                 52206
  **** **  *******  **  PROGRAM STARTED IN /data/wilhelm/2_job_test/11_GW100/3_c
                                           alcs/08_Na2

 CP2K| version string:                    CP2K version 7.0 (Development Version)
 CP2K| source code revision number:                                  git:bc2813a
 CP2K| cp2kflags: libint fftw3 libxc pexsi elpa=201705 parallel mpi3 scalapack q
 CP2K|            uip libderiv_max_am1=5 libint_max_am=6
 CP2K| is freely available from                            https://www.cp2k.org/
 CP2K| Program compiled at                         Sun Jun  2 14:38:23 CEST 2019
 CP2K| Program compiled on                                                tcopt4
 CP2K| Program compiled for                            local_valgrind_March_2019
 CP2K| Data directory path              /data/wilhelm/1_git_repository/cp2k/data
 CP2K| Input file name                                                    GW.inp

 GLOBAL| Force Environment number                                              1
 GLOBAL| Basis set file name                              BASIS_def2_QZVP_RI_ALL
 GLOBAL| Potential file name                                           POTENTIAL
 GLOBAL| MM Potential file name                                     MM_POTENTIAL
 GLOBAL| Coordinate file name                                         08_Na2.xyz
 GLOBAL| Method name                                                        CP2K
 GLOBAL| Project name                                                   ALL_ELEC
 GLOBAL| Preferred FFT library                                             FFTW3
 GLOBAL| Preferred diagonalization lib.                                       SL
 GLOBAL| Run type                                                         ENERGY
 GLOBAL| All-to-all communication in single precision                          F
 GLOBAL| FFTs using library dependent lengths                                  F
 GLOBAL| Global print level                                               MEDIUM
 GLOBAL| MPI I/O enabled                                                       T
 GLOBAL| Total number of message passing processes                            24
 GLOBAL| Number of threads for this process                                    1
 GLOBAL| This output is from process                                           0
 GLOBAL| CPU model name :  Intel(R) Xeon(R) CPU E5-2697 v3 @ 2.60GHz

 MEMORY| system memory details [Kb]
 MEMORY|                        rank 0           min           max       average
 MEMORY| MemTotal            396954008     396954008     396954008     396954008
 MEMORY| MemFree             342185860     342185860     342185860     342185860
 MEMORY| Buffers                274280        274280        274280        274280
 MEMORY| Cached               34612908      34612908      34612908      34612908
 MEMORY| Slab                  1198680       1198680       1198680       1198680
 MEMORY| SReclaimable          1057956       1057956       1057956       1057956
 MEMORY| MemLikelyFree       378131004     378131004     378131004     378131004


 *** Fundamental physical constants (SI units) ***

 *** Literature: B. J. Mohr and B. N. Taylor,
 ***             CODATA recommended values of the fundamental physical
 ***             constants: 2006, Web Version 5.1
 ***             http://physics.nist.gov/constants

 Speed of light in vacuum [m/s]                             2.99792458000000E+08
 Magnetic constant or permeability of vacuum [N/A**2]       1.25663706143592E-06
 Electric constant or permittivity of vacuum [F/m]          8.85418781762039E-12
 Planck constant (h) [J*s]                                  6.62606896000000E-34
 Planck constant (h-bar) [J*s]                              1.05457162825177E-34
 Elementary charge [C]                                      1.60217648700000E-19
 Electron mass [kg]                                         9.10938215000000E-31
 Electron g factor [ ]                                     -2.00231930436220E+00
 Proton mass [kg]                                           1.67262163700000E-27
 Fine-structure constant                                    7.29735253760000E-03
 Rydberg constant [1/m]                                     1.09737315685270E+07
 Avogadro constant [1/mol]                                  6.02214179000000E+23
 Boltzmann constant [J/K]                                   1.38065040000000E-23
 Atomic mass unit [kg]                                      1.66053878200000E-27
 Bohr radius [m]                                            5.29177208590000E-11

 *** Conversion factors ***

 [u] -> [a.u.]                                              1.82288848426455E+03
 [Angstrom] -> [Bohr] = [a.u.]                              1.88972613288564E+00
 [a.u.] = [Bohr] -> [Angstrom]                              5.29177208590000E-01
 [a.u.] -> [s]                                              2.41888432650478E-17
 [a.u.] -> [fs]                                             2.41888432650478E-02
 [a.u.] -> [J]                                              4.35974393937059E-18
 [a.u.] -> [N]                                              8.23872205491840E-08
 [a.u.] -> [K]                                              3.15774647902944E+05
 [a.u.] -> [kJ/mol]                                         2.62549961709828E+03
 [a.u.] -> [kcal/mol]                                       6.27509468713739E+02
 [a.u.] -> [Pa]                                             2.94210107994716E+13
 [a.u.] -> [bar]                                            2.94210107994716E+08
 [a.u.] -> [atm]                                            2.90362800883016E+08
 [a.u.] -> [eV]                                             2.72113838565563E+01
 [a.u.] -> [Hz]                                             6.57968392072181E+15
 [a.u.] -> [1/cm] (wave numbers)                            2.19474631370540E+05
 [a.u./Bohr**2] -> [1/cm]                                   5.14048714338585E+03
 

 CELL_TOP| Volume [angstrom^3]:                                         4096.000
 CELL_TOP| Vector a [angstrom    16.000     0.000     0.000    |a| =      16.000
 CELL_TOP| Vector b [angstrom     0.000    16.000     0.000    |b| =      16.000
 CELL_TOP| Vector c [angstrom     0.000     0.000    16.000    |c| =      16.000
 CELL_TOP| Angle (b,c), alpha [degree]:                                   90.000
 CELL_TOP| Angle (a,c), beta  [degree]:                                   90.000
 CELL_TOP| Angle (a,b), gamma [degree]:                                   90.000
 CELL_TOP| Numerically orthorhombic:                                         YES

 GENERATE|  Preliminary Number of Bonds generated:                             0
 GENERATE|  Achieved consistency in connectivity generation.

 CELL| Volume [angstrom^3]:                                             4096.000
 CELL| Vector a [angstrom]:      16.000     0.000     0.000    |a| =      16.000
 CELL| Vector b [angstrom]:       0.000    16.000     0.000    |b| =      16.000
 CELL| Vector c [angstrom]:       0.000     0.000    16.000    |c| =      16.000
 CELL| Angle (b,c), alpha [degree]:                                       90.000
 CELL| Angle (a,c), beta  [degree]:                                       90.000
 CELL| Angle (a,b), gamma [degree]:                                       90.000
 CELL| Numerically orthorhombic:                                             YES

 CELL_REF| Volume [angstrom^3]:                                         4096.000
 CELL_REF| Vector a [angstrom    16.000     0.000     0.000    |a| =      16.000
 CELL_REF| Vector b [angstrom     0.000    16.000     0.000    |b| =      16.000
 CELL_REF| Vector c [angstrom     0.000     0.000    16.000    |c| =      16.000
 CELL_REF| Angle (b,c), alpha [degree]:                                   90.000
 CELL_REF| Angle (a,c), beta  [degree]:                                   90.000
 CELL_REF| Angle (a,b), gamma [degree]:                                   90.000
 CELL_REF| Numerically orthorhombic:                                         YES

 *******************************************************************************
 *******************************************************************************
 **                                                                           **
 **     #####                         ##              ##                      **
 **    ##   ##            ##          ##              ##                      **
 **   ##     ##                       ##            ######                    **
 **   ##     ##  ##   ##  ##   #####  ##  ##   ####   ##    #####    #####    **
 **   ##     ##  ##   ##  ##  ##      ## ##   ##      ##   ##   ##  ##   ##   **
 **   ##  ## ##  ##   ##  ##  ##      ####     ###    ##   ######   ######    **
 **    ##  ###   ##   ##  ##  ##      ## ##      ##   ##   ##       ##        **
 **     #######   #####   ##   #####  ##  ##  ####    ##    #####   ##        **
 **           ##                                                    ##        **
 **                                                                           **
 **                                                ... make the atoms dance   **
 **                                                                           **
 **            Copyright (C) by CP2K developers group (2000 - 2019)           **
 **                                                                           **
 *******************************************************************************

 DFT| Spin restricted Kohn-Sham (RKS) calculation                            RKS
 DFT| Multiplicity                                                             1
 DFT| Number of spin states                                                    1
 DFT| Charge                                                                   0
 DFT| Self-interaction correction (SIC)                                       NO
 DFT| Cutoffs: density                                              1.000000E-10
 DFT|          gradient                                             1.000000E-10
 DFT|          tau                                                  1.000000E-10
 DFT|          cutoff_smoothing_range                               0.000000E+00
 DFT| XC density smoothing                                                  NONE
 DFT| XC derivatives                                                          PW
 FUNCTIONAL| ROUTINE=NEW
 FUNCTIONAL| PBE:
 FUNCTIONAL| J.P.Perdew, K.Burke, M.Ernzerhof, Phys. Rev. Letter, vol. 77, n 18,
 FUNCTIONAL|  pp. 3865-3868, (1996){spin unpolarized}                           

 QS| Method:                                                                GAPW
 QS| Density plane wave grid type                        NON-SPHERICAL FULLSPACE
 QS| Number of grid levels:                                                    4
 QS| Density cutoff [a.u.]:                                                200.0
 QS| Multi grid cutoff [a.u.]: 1) grid level                               200.0
 QS|                           2) grid level                                66.7
 QS|                           3) grid level                                22.2
 QS|                           4) grid level                                 7.4
 QS| Grid level progression factor:                                          3.0
 QS| Relative density cutoff [a.u.]:                                        25.0
 QS| Consistent realspace mapping and integration 
 QS| Interaction thresholds: eps_pgf_orb:                                1.0E-05
 QS|                         eps_filter_matrix:                          0.0E+00
 QS|                         eps_core_charge:                            1.0E-12
 QS|                         eps_rho_gspace:                             1.0E-10
 QS|                         eps_rho_rspace:                             1.0E-10
 QS|                         eps_gvg_rspace:                             1.0E-05
 QS|                         eps_ppl:                                    1.0E-02
 QS|                         eps_ppnl:                                   1.0E-07
 QS| GAPW|                   eps_fit:                                    1.0E-04
 QS| GAPW|                   eps_iso:                                    1.0E-12
 QS| GAPW|                   eps_svd:                                    1.0E-08
 QS| GAPW|                   eps_cpc:                                    1.0E-10
 QS| GAPW|   atom-r-grid: quadrature:                 GC_LOG                        
 QS| GAPW|      atom-s-grid:  max l :                                          6
 QS| GAPW|      max_l_rho0 :                                                   2


 ATOMIC KIND INFORMATION

  1. Atomic kind: Na                                    Number of atoms:       2

     Orbital Basis Set                                                 def2-QZVP

       Number of orbital shell sets:                                          18
       Number of orbital shells:                                              18
       Number of primitive Cartesian functions:                               36
       Number of Cartesian basis functions:                                   52
       Number of spherical basis functions:                                   46
       Norm type:                                                              2

       Normalised Cartesian orbitals:

                        Set   Shell   Orbital            Exponent    Coefficient

                          1       1    1s           379852.200810       0.239571
                                                     56886.006378       0.448370
                                                     12942.701838       0.776316
                                                      3664.301790       1.267092
                                                      1194.741750       1.963166
                                                       430.981929       2.858391
                                                       167.831694       3.786259
                                                        69.306669       4.246459
                                                        29.951171       3.523436
                                                        13.380791       1.618647

                          2       1    1s              121.740113       0.883178
                                                        37.044143       2.885386
                                                        13.995423       3.827570

                          3       1    1s                5.982780       2.726386

                          4       1    1s                2.483046       1.409771

                          5       1    1s                1.045251       0.736759

                          6       1    1s                0.438756       0.384218

                          7       1    1s                0.065596       0.092378

                          8       1    1s                0.030562       0.052095

                          9       1    1s                0.015509       0.031322

                         10       1    1px             690.776270       1.967483
                                                       163.828061       2.760793
                                                        52.876461       3.452362
                                                        19.812270       3.702527
                                                         8.132038       3.232498
                                                         3.496907       2.059200
                                                         1.511724       0.903688
                                                         0.644793       0.241500
                         10       1    1py             690.776270       1.967483
                                                       163.828061       2.760793
                                                        52.876461       3.452362
                                                        19.812270       3.702527
                                                         8.132038       3.232498
                                                         3.496907       2.059200
                                                         1.511724       0.903688
                                                         0.644793       0.241500
                         10       1    1pz             690.776270       1.967483
                                                       163.828061       2.760793
                                                        52.876461       3.452362
                                                        19.812270       3.702527
                                                         8.132038       3.232498
                                                         3.496907       2.059200
                                                         1.511724       0.903688
                                                         0.644793       0.241500

                         11       1    1px               0.261458       0.266497
                         11       1    1py               0.261458       0.266497
                         11       1    1pz               0.261458       0.266497

                         12       1    1px               0.117047       0.097587
                         12       1    1py               0.117047       0.097587
                         12       1    1pz               0.117047       0.097587

                         13       1    1px               0.040495       0.025893
                         13       1    1py               0.040495       0.025893
                         13       1    1pz               0.040495       0.025893

                         14       1    1px               0.015667       0.007901
                         14       1    1py               0.015667       0.007901
                         14       1    1pz               0.015667       0.007901

                         15       1    1dx2              2.900000      10.607327
                         15       1    1dxy              2.900000      18.372429
                         15       1    1dxz              2.900000      18.372429
                         15       1    1dy2              2.900000      10.607327
                         15       1    1dyz              2.900000      18.372429
                         15       1    1dz2              2.900000      10.607327

                         16       1    1dx2              0.230000       0.125728
                         16       1    1dxy              0.230000       0.217768
                         16       1    1dxz              0.230000       0.217768
                         16       1    1dy2              0.230000       0.125728
                         16       1    1dyz              0.230000       0.217768
                         16       1    1dz2              0.230000       0.125728

                         17       1    1dx2              0.075700       0.017982
                         17       1    1dxy              0.075700       0.031145
                         17       1    1dxz              0.075700       0.031145
                         17       1    1dy2              0.075700       0.017982
                         17       1    1dyz              0.075700       0.031145
                         17       1    1dz2              0.075700       0.017982

                         18       1    1fx3              0.135000       0.016263
                         18       1    1fx2y             0.135000       0.036366
                         18       1    1fx2z             0.135000       0.036366
                         18       1    1fxy2             0.135000       0.036366
                         18       1    1fxyz             0.135000       0.062987
                         18       1    1fxz2             0.135000       0.036366
                         18       1    1fy3              0.135000       0.016263
                         18       1    1fy2z             0.135000       0.036366
                         18       1    1fyz2             0.135000       0.036366
                         18       1    1fz3              0.135000       0.016263

     RI Auxiliary Basis Set                                                RI-5Z

       Number of orbital shell sets:                                          48
       Number of orbital shells:                                              48
       Number of primitive Cartesian functions:                               48
       Number of Cartesian basis functions:                                  335
       Number of spherical basis functions:                                  230
       Norm type:                                                              2

       Normalised Cartesian orbitals:

                        Set   Shell   Orbital            Exponent    Coefficient

                          1       1    1s              419.616000      66.076818

                          2       1    1s               76.184400      18.378482

                          3       1    1s               36.109400      10.498453

                          4       1    1s               10.679900       4.210518

                          5       1    1s                5.620630       2.601650

                          6       1    1s                1.925560       1.165005

                          7       1    1s                0.852646       0.632392

                          8       1    1s                0.387552       0.350072

                          9       1    1s                0.221264       0.229929

                         10       1    1s                0.139657       0.162820

                         11       1    1s                0.084509       0.111709

                         12       1    1s                0.049376       0.074653

                         13       1    1px              90.027500     395.283854
                         13       1    1py              90.027500     395.283854
                         13       1    1pz              90.027500     395.283854

                         14       1    1px              22.833000      71.144906
                         14       1    1py              22.833000      71.144906
                         14       1    1pz              22.833000      71.144906

                         15       1    1px               8.495520      20.674144
                         15       1    1py               8.495520      20.674144
                         15       1    1pz               8.495520      20.674144

                         16       1    1px               3.996960       8.055682
                         16       1    1py               3.996960       8.055682
                         16       1    1pz               3.996960       8.055682

                         17       1    1px               1.854640       3.085067
                         17       1    1py               1.854640       3.085067
                         17       1    1pz               1.854640       3.085067

                         18       1    1px               0.833572       1.135322
                         18       1    1py               0.833572       1.135322
                         18       1    1pz               0.833572       1.135322

                         19       1    1px               0.404155       0.459330
                         19       1    1py               0.404155       0.459330
                         19       1    1pz               0.404155       0.459330

                         20       1    1px               0.220763       0.215699
                         20       1    1py               0.220763       0.215699
                         20       1    1pz               0.220763       0.215699

                         21       1    1px               0.140095       0.122171
                         21       1    1py               0.140095       0.122171
                         21       1    1pz               0.140095       0.122171

                         22       1    1px               0.094966       0.075146
                         22       1    1py               0.094966       0.075146
                         22       1    1pz               0.094966       0.075146

                         23       1    1px               0.055505       0.038402
                         23       1    1py               0.055505       0.038402
                         23       1    1pz               0.055505       0.038402

                         24       1    1dx2             24.684200     449.927776
                         24       1    1dxy             24.684200     779.297768
                         24       1    1dxz             24.684200     779.297768
                         24       1    1dy2             24.684200     449.927776
                         24       1    1dyz             24.684200     779.297768
                         24       1    1dz2             24.684200     449.927776

                         25       1    1dx2              7.308650      53.471762
                         25       1    1dxy              7.308650      92.615808
                         25       1    1dxz              7.308650      92.615808
                         25       1    1dy2              7.308650      53.471762
                         25       1    1dyz              7.308650      92.615808
                         25       1    1dz2              7.308650      53.471762

                         26       1    1dx2              2.161400       6.341558
                         26       1    1dxy              2.161400      10.983901
                         26       1    1dxz              2.161400      10.983901
                         26       1    1dy2              2.161400       6.341558
                         26       1    1dyz              2.161400      10.983901
                         26       1    1dz2              2.161400       6.341558

                         27       1    1dx2              1.015980       1.692226
                         27       1    1dxy              1.015980       2.931022
                         27       1    1dxz              1.015980       2.931022
                         27       1    1dy2              1.015980       1.692226
                         27       1    1dyz              1.015980       2.931022
                         27       1    1dz2              1.015980       1.692226

                         28       1    1dx2              0.460342       0.423448
                         28       1    1dxy              0.460342       0.733434
                         28       1    1dxz              0.460342       0.733434
                         28       1    1dy2              0.460342       0.423448
                         28       1    1dyz              0.460342       0.733434
                         28       1    1dz2              0.460342       0.423448

                         29       1    1dx2              0.264182       0.160229
                         29       1    1dxy              0.264182       0.277524
                         29       1    1dxz              0.264182       0.277524
                         29       1    1dy2              0.264182       0.160229
                         29       1    1dyz              0.264182       0.277524
                         29       1    1dz2              0.264182       0.160229

                         30       1    1dx2              0.163262       0.069017
                         30       1    1dxy              0.163262       0.119542
                         30       1    1dxz              0.163262       0.119542
                         30       1    1dy2              0.163262       0.069017
                         30       1    1dyz              0.163262       0.119542
                         30       1    1dz2              0.163262       0.069017

                         31       1    1dx2              0.112281       0.035846
                         31       1    1dxy              0.112281       0.062088
                         31       1    1dxz              0.112281       0.062088
                         31       1    1dy2              0.112281       0.035846
                         31       1    1dyz              0.112281       0.062088
                         31       1    1dz2              0.112281       0.035846

                         32       1    1dx2              0.071736       0.016366
                         32       1    1dxy              0.071736       0.028347
                         32       1    1dxz              0.071736       0.028347
                         32       1    1dy2              0.071736       0.016366
                         32       1    1dyz              0.071736       0.028347
                         32       1    1dz2              0.071736       0.016366

                         33       1    1fx3              5.498600      68.158769
                         33       1    1fx2y             5.498600     152.407640
                         33       1    1fx2z             5.498600     152.407640
                         33       1    1fxy2             5.498600     152.407640
                         33       1    1fxyz             5.498600     263.977777
                         33       1    1fxz2             5.498600     152.407640
                         33       1    1fy3              5.498600      68.158769
                         33       1    1fy2z             5.498600     152.407640
                         33       1    1fyz2             5.498600     152.407640
                         33       1    1fz3              5.498600      68.158769

                         34       1    1fx3              1.897290       6.219498
                         34       1    1fx2y             1.897290      13.907220
                         34       1    1fx2z             1.897290      13.907220
                         34       1    1fxy2             1.897290      13.907220
                         34       1    1fxyz             1.897290      24.088011
                         34       1    1fxz2             1.897290      13.907220
                         34       1    1fy3              1.897290       6.219498
                         34       1    1fy2z             1.897290      13.907220
                         34       1    1fyz2             1.897290      13.907220
                         34       1    1fz3              1.897290       6.219498

                         35       1    1fx3              0.906002       1.178949
                         35       1    1fx2y             0.906002       2.636210
                         35       1    1fx2z             0.906002       2.636210
                         35       1    1fxy2             0.906002       2.636210
                         35       1    1fxyz             0.906002       4.566050
                         35       1    1fxz2             0.906002       2.636210
                         35       1    1fy3              0.906002       1.178949
                         35       1    1fy2z             0.906002       2.636210
                         35       1    1fyz2             0.906002       2.636210
                         35       1    1fz3              0.906002       1.178949

                         36       1    1fx3              0.448908       0.242833
                         36       1    1fx2y             0.448908       0.542992
                         36       1    1fx2z             0.448908       0.542992
                         36       1    1fxy2             0.448908       0.542992
                         36       1    1fxyz             0.448908       0.940490
                         36       1    1fxz2             0.448908       0.542992
                         36       1    1fy3              0.448908       0.242833
                         36       1    1fy2z             0.448908       0.542992
                         36       1    1fyz2             0.448908       0.542992
                         36       1    1fz3              0.448908       0.242833

                         37       1    1fx3              0.279331       0.083507
                         37       1    1fx2y             0.279331       0.186727
                         37       1    1fx2z             0.279331       0.186727
                         37       1    1fxy2             0.279331       0.186727
                         37       1    1fxyz             0.279331       0.323421
                         37       1    1fxz2             0.279331       0.186727
                         37       1    1fy3              0.279331       0.083507
                         37       1    1fy2z             0.279331       0.186727
                         37       1    1fyz2             0.279331       0.186727
                         37       1    1fz3              0.279331       0.083507

                         38       1    1fx3              0.169807       0.027249
                         38       1    1fx2y             0.169807       0.060931
                         38       1    1fx2z             0.169807       0.060931
                         38       1    1fxy2             0.169807       0.060931
                         38       1    1fxyz             0.169807       0.105536
                         38       1    1fxz2             0.169807       0.060931
                         38       1    1fy3              0.169807       0.027249
                         38       1    1fy2z             0.169807       0.060931
                         38       1    1fyz2             0.169807       0.060931
                         38       1    1fz3              0.169807       0.027249

                         39       1    1fx3              0.100110       0.008299
                         39       1    1fx2y             0.100110       0.018557
                         39       1    1fx2z             0.100110       0.018557
                         39       1    1fxy2             0.100110       0.018557
                         39       1    1fxyz             0.100110       0.032142
                         39       1    1fxz2             0.100110       0.018557
                         39       1    1fy3              0.100110       0.008299
                         39       1    1fy2z             0.100110       0.018557
                         39       1    1fyz2             0.100110       0.018557
                         39       1    1fz3              0.100110       0.008299

                         40       1    1gx4              1.972760       7.209242
                         40       1    1gx3y             1.972760      19.073862
                         40       1    1gx3z             1.972760      19.073862
                         40       1    1gx2y2            1.972760      24.624250
                         40       1    1gx2yz            1.972760      42.650453
                         40       1    1gx2z2            1.972760      24.624250
                         40       1    1gxy3             1.972760      19.073862
                         40       1    1gxy2z            1.972760      42.650453
                         40       1    1gxyz2            1.972760      42.650453
                         40       1    1gxz3             1.972760      19.073862
                         40       1    1gy4              1.972760       7.209242
                         40       1    1gy3z             1.972760      19.073862
                         40       1    1gy2z2            1.972760      24.624250
                         40       1    1gyz3             1.972760      19.073862
                         40       1    1gz4              1.972760       7.209242

                         41       1    1gx4              0.831274       0.669471
                         41       1    1gx3y             0.831274       1.771255
                         41       1    1gx3z             0.831274       1.771255
                         41       1    1gx2y2            0.831274       2.286680
                         41       1    1gx2yz            0.831274       3.960646
                         41       1    1gx2z2            0.831274       2.286680
                         41       1    1gxy3             0.831274       1.771255
                         41       1    1gxy2z            0.831274       3.960646
                         41       1    1gxyz2            0.831274       3.960646
                         41       1    1gxz3             0.831274       1.771255
                         41       1    1gy4              0.831274       0.669471
                         41       1    1gy3z             0.831274       1.771255
                         41       1    1gy2z2            0.831274       2.286680
                         41       1    1gyz3             0.831274       1.771255
                         41       1    1gz4              0.831274       0.669471

                         42       1    1gx4              0.444306       0.119553
                         42       1    1gx3y             0.444306       0.316308
                         42       1    1gx3z             0.444306       0.316308
                         42       1    1gx2y2            0.444306       0.408352
                         42       1    1gx2yz            0.444306       0.707287
                         42       1    1gx2z2            0.444306       0.408352
                         42       1    1gxy3             0.444306       0.316308
                         42       1    1gxy2z            0.444306       0.707287
                         42       1    1gxyz2            0.444306       0.707287
                         42       1    1gxz3             0.444306       0.316308
                         42       1    1gy4              0.444306       0.119553
                         42       1    1gy3z             0.444306       0.316308
                         42       1    1gy2z2            0.444306       0.408352
                         42       1    1gyz3             0.444306       0.316308
                         42       1    1gz4              0.444306       0.119553

                         43       1    1gx4              0.243401       0.022847
                         43       1    1gx3y             0.243401       0.060446
                         43       1    1gx3z             0.243401       0.060446
                         43       1    1gx2y2            0.243401       0.078036
                         43       1    1gx2yz            0.243401       0.135162
                         43       1    1gx2z2            0.243401       0.078036
                         43       1    1gxy3             0.243401       0.060446
                         43       1    1gxy2z            0.243401       0.135162
                         43       1    1gxyz2            0.243401       0.135162
                         43       1    1gxz3             0.243401       0.060446
                         43       1    1gy4              0.243401       0.022847
                         43       1    1gy3z             0.243401       0.060446
                         43       1    1gy2z2            0.243401       0.078036
                         43       1    1gyz3             0.243401       0.060446
                         43       1    1gz4              0.243401       0.022847

                         44       1    1gx4              0.121353       0.003370
                         44       1    1gx3y             0.121353       0.008915
                         44       1    1gx3z             0.121353       0.008915
                         44       1    1gx2y2            0.121353       0.011509
                         44       1    1gx2yz            0.121353       0.019935
                         44       1    1gx2z2            0.121353       0.011509
                         44       1    1gxy3             0.121353       0.008915
                         44       1    1gxy2z            0.121353       0.019935
                         44       1    1gxyz2            0.121353       0.019935
                         44       1    1gxz3             0.121353       0.008915
                         44       1    1gy4              0.121353       0.003370
                         44       1    1gy3z             0.121353       0.008915
                         44       1    1gy2z2            0.121353       0.011509
                         44       1    1gyz3             0.121353       0.008915
                         44       1    1gz4              0.121353       0.003370

                         45       1    1hx5              1.196610       1.329506
                         45       1    1hx4y             1.196610       3.988517
                         45       1    1hx4z             1.196610       3.988517
                         45       1    1hx3y2            1.196610       6.092561
                         45       1    1hx3yz            1.196610      10.552624
                         45       1    1hx3z2            1.196610       6.092561
                         45       1    1hx2y3            1.196610       6.092561
                         45       1    1hx2y2z           1.196610      13.623380
                         45       1    1hx2yz2           1.196610      13.623380
                         45       1    1hx2z3            1.196610       6.092561
                         45       1    1hxy4             1.196610       3.988517
                         45       1    1hxy3z            1.196610      10.552624
                         45       1    1hxy2z2           1.196610      13.623380
                         45       1    1hxyz3            1.196610      10.552624
                         45       1    1hxz4             1.196610       3.988517
                         45       1    1hy5              1.196610       1.329506
                         45       1    1hy4z             1.196610       3.988517
                         45       1    1hy3z2            1.196610       6.092561
                         45       1    1hy2z3            1.196610       6.092561
                         45       1    1hyz4             1.196610       3.988517
                         45       1    1hz5              1.196610       1.329506

                         46       1    1hx5              0.515542       0.086139
                         46       1    1hx4y             0.515542       0.258418
                         46       1    1hx4z             0.515542       0.258418
                         46       1    1hx3y2            0.515542       0.394741
                         46       1    1hx3yz            0.515542       0.683711
                         46       1    1hx3z2            0.515542       0.394741
                         46       1    1hx2y3            0.515542       0.394741
                         46       1    1hx2y2z           0.515542       0.882667
                         46       1    1hx2yz2           0.515542       0.882667
                         46       1    1hx2z3            0.515542       0.394741
                         46       1    1hxy4             0.515542       0.258418
                         46       1    1hxy3z            0.515542       0.683711
                         46       1    1hxy2z2           0.515542       0.882667
                         46       1    1hxyz3            0.515542       0.683711
                         46       1    1hxz4             0.515542       0.258418
                         46       1    1hy5              0.515542       0.086139
                         46       1    1hy4z             0.515542       0.258418
                         46       1    1hy3z2            0.515542       0.394741
                         46       1    1hy2z3            0.515542       0.394741
                         46       1    1hyz4             0.515542       0.258418
                         46       1    1hz5              0.515542       0.086139

                         47       1    1hx5              0.195597       0.003692
                         47       1    1hx4y             0.195597       0.011076
                         47       1    1hx4z             0.195597       0.011076
                         47       1    1hx3y2            0.195597       0.016919
                         47       1    1hx3yz            0.195597       0.029305
                         47       1    1hx3z2            0.195597       0.016919
                         47       1    1hx2y3            0.195597       0.016919
                         47       1    1hx2y2z           0.195597       0.037833
                         47       1    1hx2yz2           0.195597       0.037833
                         47       1    1hx2z3            0.195597       0.016919
                         47       1    1hxy4             0.195597       0.011076
                         47       1    1hxy3z            0.195597       0.029305
                         47       1    1hxy2z2           0.195597       0.037833
                         47       1    1hxyz3            0.195597       0.029305
                         47       1    1hxz4             0.195597       0.011076
                         47       1    1hy5              0.195597       0.003692
                         47       1    1hy4z             0.195597       0.011076
                         47       1    1hy3z2            0.195597       0.016919
                         47       1    1hy2z3            0.195597       0.016919
                         47       1    1hyz4             0.195597       0.011076
                         47       1    1hz5              0.195597       0.003692

                         48       1    1ix6              0.533694       0.042464
                         48       1    1ix5y             0.533694       0.140838
                         48       1    1ix5z             0.533694       0.140838
                         48       1    1ix4y2            0.533694       0.243939
                         48       1    1ix4yz            0.533694       0.422515
                         48       1    1ix4z2            0.533694       0.243939
                         48       1    1ix3y3            0.533694       0.288632
                         48       1    1ix3y2z           0.533694       0.645402
                         48       1    1ix3yz2           0.533694       0.645402
                         48       1    1ix3z3            0.533694       0.288632
                         48       1    1ix2y4            0.533694       0.243939
                         48       1    1ix2y3z           0.533694       0.645402
                         48       1    1ix2y2z2          0.533694       0.833210
                         48       1    1ix2yz3           0.533694       0.645402
                         48       1    1ix2z4            0.533694       0.243939
                         48       1    1ixy5             0.533694       0.140838
                         48       1    1ixy4z            0.533694       0.422515
                         48       1    1ixy3z2           0.533694       0.645402
                         48       1    1ixy2z3           0.533694       0.645402
                         48       1    1ixyz4            0.533694       0.422515
                         48       1    1ixz5             0.533694       0.140838
                         48       1    1iy6              0.533694       0.042464
                         48       1    1iy5z             0.533694       0.140838
                         48       1    1iy4z2            0.533694       0.243939
                         48       1    1iy3z3            0.533694       0.288632
                         48       1    1iy2z4            0.533694       0.243939
                         48       1    1iyz5             0.533694       0.140838
                         48       1    1iz6              0.533694       0.042464

     The atoms of this atomic kind are PAW atoms (GAPW):
       Hard Gaussian function radius:                                      1.512
       Rho0 radius:                                                        1.512
       Maximum GTO radius used for PAW projector construction:            24.566

     GAPW Soft Basis Set                                          def2-QZVP_soft

       Number of orbital shell sets:                                          18
       Number of orbital shells:                                              18
       Number of primitive Cartesian functions:                               17
       Number of Cartesian basis functions:                                   52
       Number of spherical basis functions:                                   46
       Norm type:                                                              2

       Normalised Cartesian orbitals:

                        Set   Shell   Orbital            Exponent    Coefficient

                          1       1    1s         

                          2       1    1s         

                          3       1    1s         

                          4       1    1s                2.483046       1.409771

                          5       1    1s                1.045251       0.736759

                          6       1    1s                0.438756       0.384218

                          7       1    1s                0.065596       0.092378

                          8       1    1s                0.030562       0.052095

                          9       1    1s                0.015509       0.031322

                         10       1    1px               3.496907       2.059200
                                                         1.511724       0.903688
                                                         0.644793       0.241500
                         10       1    1py               3.496907       2.059200
                                                         1.511724       0.903688
                                                         0.644793       0.241500
                         10       1    1pz               3.496907       2.059200
                                                         1.511724       0.903688
                                                         0.644793       0.241500

                         11       1    1px               0.261458       0.266497
                         11       1    1py               0.261458       0.266497
                         11       1    1pz               0.261458       0.266497

                         12       1    1px               0.117047       0.097587
                         12       1    1py               0.117047       0.097587
                         12       1    1pz               0.117047       0.097587

                         13       1    1px               0.040495       0.025893
                         13       1    1py               0.040495       0.025893
                         13       1    1pz               0.040495       0.025893

                         14       1    1px               0.015667       0.007901
                         14       1    1py               0.015667       0.007901
                         14       1    1pz               0.015667       0.007901

                         15       1    1dx2              2.900000      10.607327
                         15       1    1dxy              2.900000      18.372429
                         15       1    1dxz              2.900000      18.372429
                         15       1    1dy2              2.900000      10.607327
                         15       1    1dyz              2.900000      18.372429
                         15       1    1dz2              2.900000      10.607327

                         16       1    1dx2              0.230000       0.125728
                         16       1    1dxy              0.230000       0.217768
                         16       1    1dxz              0.230000       0.217768
                         16       1    1dy2              0.230000       0.125728
                         16       1    1dyz              0.230000       0.217768
                         16       1    1dz2              0.230000       0.125728

                         17       1    1dx2              0.075700       0.017982
                         17       1    1dxy              0.075700       0.031145
                         17       1    1dxz              0.075700       0.031145
                         17       1    1dy2              0.075700       0.017982
                         17       1    1dyz              0.075700       0.031145
                         17       1    1dz2              0.075700       0.017982

                         18       1    1fx3              0.135000       0.016263
                         18       1    1fx2y             0.135000       0.036366
                         18       1    1fx2z             0.135000       0.036366
                         18       1    1fxy2             0.135000       0.036366
                         18       1    1fxyz             0.135000       0.062987
                         18       1    1fxz2             0.135000       0.036366
                         18       1    1fy3              0.135000       0.016263
                         18       1    1fy2z             0.135000       0.036366
                         18       1    1fyz2             0.135000       0.036366
                         18       1    1fz3              0.135000       0.016263

     AE Potential information for                                            ALL

       Description:                                       All-electron potential
                                          Krack, Parrinello, PCCP 2, 2105 (2000)

       Gaussian exponent of the core charge distribution:               8.240971
       Electronic configuration (s p d ...):                           5   6   0


 MOLECULE KIND INFORMATION


 All atoms are their own molecule, skipping detailed information


 TOTAL NUMBERS AND MAXIMUM NUMBERS

  Total number of            - Atomic kinds:                                   1
                             - Atoms:                                          2
                             - Shell sets:                                    36
                             - Shells:                                        36
                             - Primitive Cartesian functions:                 72
                             - Cartesian basis functions:                    104
                             - Spherical basis functions:                     92

  Maximum angular momentum of the orbital basis functions:                     3


 MODULE QUICKSTEP:  ATOMIC COORDINATES IN angstrom

  Atom  Kind  Element       X           Y           Z          Z(eff)       Mass

       1     1 Na  11    8.000000    8.000000    6.460550     11.00      22.9898
       2     1 Na  11    8.000000    8.000000    9.539450     11.00      22.9898




 SCF PARAMETERS         Density guess:                                   RESTART
                        --------------------------------------------------------
                        max_scf:                                             200
                        max_scf_history:                                       0
                        max_diis:                                              4
                        --------------------------------------------------------
                        eps_scf:                                        1.00E-06
                        eps_scf_history:                                0.00E+00
                        eps_diis:                                       1.00E-01
                        eps_eigval:                                     1.00E-05
                        --------------------------------------------------------
                        level_shift [a.u.]:                                 0.00
                        --------------------------------------------------------
                        Mixing method:                           DIRECT_P_MIXING
                        --------------------------------------------------------
                        No outer SCF

 PW_GRID| Information for grid number                                          1
 PW_GRID| Grid distributed over                                    24 processors
 PW_GRID| Real space group dimensions                                    24    1
 PW_GRID| the grid is blocked:                                                NO
 PW_GRID| Cutoff [a.u.]                                                    400.0
 PW_GRID| spherical cutoff:                                                   NO
 PW_GRID|   Bounds   1           -144     143                Points:         288
 PW_GRID|   Bounds   2           -144     143                Points:         288
 PW_GRID|   Bounds   3           -144     143                Points:         288
 PW_GRID| Volume element (a.u.^3)  0.1157E-02     Volume (a.u.^3)     27641.1785
 PW_GRID| Grid span                                                    FULLSPACE
 PW_GRID|   Distribution                         Average         Max         Min
 PW_GRID|   G-Vectors                           995328.0      995328      995328
 PW_GRID|   G-Rays                                3456.0        3456        3456
 PW_GRID|   Real Space Points                   995328.0      995328      995328

 PW_GRID| Information for grid number                                          2
 PW_GRID| Grid distributed over                                    24 processors
 PW_GRID| Real space group dimensions                                    24    1
 PW_GRID| the grid is blocked:                                                NO
 PW_GRID| Cutoff [a.u.]                                                    200.0
 PW_GRID| spherical cutoff:                                                   NO
 PW_GRID|   Bounds   1           -100      99                Points:         200
 PW_GRID|   Bounds   2           -100      99                Points:         200
 PW_GRID|   Bounds   3           -100      99                Points:         200
 PW_GRID| Volume element (a.u.^3)  0.3455E-02     Volume (a.u.^3)     27641.1785
 PW_GRID| Grid span                                                    FULLSPACE
 PW_GRID|   Distribution                         Average         Max         Min
 PW_GRID|   G-Vectors                           333333.3      333600      333200
 PW_GRID|   G-Rays                                1666.7        1668        1666
 PW_GRID|   Real Space Points                   333333.3      360000      320000

 PW_GRID| Information for grid number                                          3
 PW_GRID| Grid distributed over                                    24 processors
 PW_GRID| Real space group dimensions                                    24    1
 PW_GRID| the grid is blocked:                                                NO
 PW_GRID| Cutoff [a.u.]                                                     66.7
 PW_GRID| spherical cutoff:                                                   NO
 PW_GRID|   Bounds   1            -60      59                Points:         120
 PW_GRID|   Bounds   2            -60      59                Points:         120
 PW_GRID|   Bounds   3            -60      59                Points:         120
 PW_GRID| Volume element (a.u.^3)  0.1600E-01     Volume (a.u.^3)     27641.1785
 PW_GRID| Grid span                                                    FULLSPACE
 PW_GRID|   Distribution                         Average         Max         Min
 PW_GRID|   G-Vectors                            72000.0       72360       71760
 PW_GRID|   G-Rays                                 600.0         603         598
 PW_GRID|   Real Space Points                    72000.0       72000       72000

 PW_GRID| Information for grid number                                          4
 PW_GRID| Grid distributed over                                    24 processors
 PW_GRID| Real space group dimensions                                    24    1
 PW_GRID| the grid is blocked:                                                NO
 PW_GRID| Cutoff [a.u.]                                                     22.2
 PW_GRID| spherical cutoff:                                                   NO
 PW_GRID|   Bounds   1            -36      35                Points:          72
 PW_GRID|   Bounds   2            -36      35                Points:          72
 PW_GRID|   Bounds   3            -36      35                Points:          72
 PW_GRID| Volume element (a.u.^3)  0.7406E-01     Volume (a.u.^3)     27641.1785
 PW_GRID| Grid span                                                    FULLSPACE
 PW_GRID|   Distribution                         Average         Max         Min
 PW_GRID|   G-Vectors                            15552.0       15768       15408
 PW_GRID|   G-Rays                                 216.0         219         214
 PW_GRID|   Real Space Points                    15552.0       15552       15552

 PW_GRID| Information for grid number                                          5
 PW_GRID| Grid distributed over                                    24 processors
 PW_GRID| Real space group dimensions                                    24    1
 PW_GRID| the grid is blocked:                                                NO
 PW_GRID| Cutoff [a.u.]                                                      7.4
 PW_GRID| spherical cutoff:                                                   NO
 PW_GRID|   Bounds   1            -20      19                Points:          40
 PW_GRID|   Bounds   2            -20      19                Points:          40
 PW_GRID|   Bounds   3            -20      19                Points:          40
 PW_GRID| Volume element (a.u.^3)  0.4319         Volume (a.u.^3)     27641.1785
 PW_GRID| Grid span                                                    FULLSPACE
 PW_GRID|   Distribution                         Average         Max         Min
 PW_GRID|   G-Vectors                             2666.7        2720        2640
 PW_GRID|   G-Rays                                  66.7          68          66
 PW_GRID|   Real Space Points                     2666.7        3200        1600

 POISSON| Solver                                          Martyna-Tuckerman (MT)
 POISSON| MT| Alpha                                                        7.000
 POISSON| MT| Relative cutoff                                                2.0
 POISSON| Periodicity                                                       NONE

 RS_GRID| Information for grid number                                          2
 RS_GRID|   Bounds   1           -100      99                Points:         200
 RS_GRID|   Bounds   2           -100      99                Points:         200
 RS_GRID|   Bounds   3           -100      99                Points:         200
 RS_GRID| Real space distribution over                                  4 groups
 RS_GRID| Real space distribution along direction                              2
 RS_GRID| Border size                                                         23
 RS_GRID| Real space distribution over                                  6 groups
 RS_GRID| Real space distribution along direction                              3
 RS_GRID| Border size                                                         23
 RS_GRID|   Distribution                         Average         Max         Min
 RS_GRID|   Planes                                  96.0          96          96
 RS_GRID|   Distribution                         Average         Max         Min
 RS_GRID|   Planes                                  79.3          80          79

 RS_GRID| Information for grid number                                          3
 RS_GRID|   Bounds   1            -60      59                Points:         120
 RS_GRID|   Bounds   2            -60      59                Points:         120
 RS_GRID|   Bounds   3            -60      59                Points:         120
 RS_GRID| Real space distribution over                                  4 groups
 RS_GRID| Real space distribution along direction                              2
 RS_GRID| Border size                                                         24
 RS_GRID| Real space distribution over                                  6 groups
 RS_GRID| Real space distribution along direction                              3
 RS_GRID| Border size                                                         24
 RS_GRID|   Distribution                         Average         Max         Min
 RS_GRID|   Planes                                  78.0          78          78
 RS_GRID|   Distribution                         Average         Max         Min
 RS_GRID|   Planes                                  68.0          68          68

 RS_GRID| Information for grid number                                          4
 RS_GRID|   Bounds   1            -36      35                Points:          72
 RS_GRID|   Bounds   2            -36      35                Points:          72
 RS_GRID|   Bounds   3            -36      35                Points:          72
 RS_GRID| Real space fully replicated
 RS_GRID| Group size                                                           1

 RS_GRID| Information for grid number                                          5
 RS_GRID|   Bounds   1            -20      19                Points:          40
 RS_GRID|   Bounds   2            -20      19                Points:          40
 RS_GRID|   Bounds   3            -20      19                Points:          40
 RS_GRID| Real space fully replicated
 RS_GRID| Group size                                                           1
 
 RI-RPA| using GPW style
 

  HFX_INFO| Replica ID:                                                        1
  HFX_INFO| EPS_SCHWARZ:                                                 2.0E-17
  HFX_INFO| EPS_SCHWARZ_FORCES                                           1.0E-06
  HFX_INFO| EPS_STORAGE_SCALING:                                         1.0E+00
  HFX_INFO| NBINS:                                                            64
  HFX_INFO| BLOCK_SIZE:                                                        1
  HFX_INFO| FRACTION:                                               1.0000000000
  HFX_INFO| Interaction Potential:                                       COULOMB
  HFX_INFO| Number of periodic shells considered:                           NONE
  HFX_INFO| Number of periodic cells considered:                            NONE


 Number of electrons:                                                         22
 Number of occupied orbitals:                                                 11
 Number of molecular orbitals:                                                11

 Number of orbital functions:                                                 92
 Number of independent orbital functions:                                     92

 Extrapolation method: initial_guess


 SCF WAVEFUNCTION OPTIMIZATION

  Step     Update method      Time    Convergence         Total energy    Change
  ------------------------------------------------------------------------------
     1 P_Mix/Diag. 0.40E+00    5.6     0.00000009      -324.3644443778 -3.24E+02

  *** SCF run converged in     1 steps ***


  Electronic density on regular grids:        -15.9080862775        6.0919137225
  Core density on regular grids:               22.0000000000        0.0000000000
  Hard and soft densities (Lebedev):          -22.4757574910      -16.3838437755
  Total Rho_soft + Rho1_hard - Rho1_soft      -21.9999999930
  Total charge density (r-space):               0.0000000070
  Total Rho_soft + Rho0_soft (g-space):        -0.0000001573

  Overlap energy of the core charge distribution:               0.00000000000000
  Self energy of the core charge distribution:               -277.14984304536057
  Core Hamiltonian energy:                                    -54.05196677099332
  Hartree energy:                                              30.78848401995687
  Exchange-correlation energy:                                -11.22127212434862

  GAPW| Exc from hard and soft atomic rho1:                   -17.34947286983028
  GAPW| local Eh = 1 center integrals:                          4.61962641272908

  Total energy:                                              -324.36444437784684

 !-----------------------------------------------------------------------------!
                     Mulliken Population Analysis

 #  Atom  Element  Kind  Atomic population                           Net charge
       1     Na       1         11.000000                              0.000000
       2     Na       1         11.000000                             -0.000000
 # Total charge                             22.000000                  0.000000

 !-----------------------------------------------------------------------------!

 !-----------------------------------------------------------------------------!
                           Hirshfeld Charges

  #Atom  Element  Kind  Ref Charge     Population                    Net charge
      1       Na     1      11.000         10.998                         0.002
      2       Na     1      11.000         10.998                         0.002

  Total Charge                                                            0.005
 !-----------------------------------------------------------------------------!


 RI-RPA section
 --------------

  Used number of processes per group:                                          1
  Maximum allowed memory usage per MPI processes:                     200.00 MiB

  HFX_MEM_INFO| Est. max. program size before HFX [MiB]:                     396
  HFX_MEM_INFO| Number of cart. primitive ERI's calculated:            254827521
  HFX_MEM_INFO| Number of sph. ERI's calculated:                        26444017
  HFX_MEM_INFO| Number of sph. ERI's stored in-core:                    26444017
  HFX_MEM_INFO| Number of sph. ERI's stored on disk:                           0
  HFX_MEM_INFO| Number of sph. ERI's calculated on the fly:                    0
  HFX_MEM_INFO| Total memory consumption ERI's RAM [MiB]:                    147
  HFX_MEM_INFO| Whereof max-vals [MiB]:                                        1
  HFX_MEM_INFO| Total compression factor ERI's RAM:                         1.38
  HFX_MEM_INFO| Total memory consumption ERI's disk [MiB]:                     0
  HFX_MEM_INFO| Total compression factor ERI's disk:                        0.00
  HFX_MEM_INFO| Size of density/Fock matrix [MiB]:                             0
  HFX_MEM_INFO| Size of buffers [MiB]:                                         0
  HFX_MEM_INFO| Est. max. program size after HFX  [MiB]:                     398

  GPW_INFO| Density cutoff [a.u.]:                                         150.0
  GPW_INFO| Relative density cutoff [a.u.]:                                 25.0
  RI_INFO| Cholesky decomposition group size:                                 24
  RI_INFO| Number of groups for auxiliary basis functions                     24
  RI_INFO| Occupied  basis set size:                                          11
  RI_INFO| Virtual   basis set size:                                          81
  RI_INFO| Auxiliary basis set size:                                         460
  RI_INFO| Total memory for (ia|K) integrals:                           3.13 MiB
  RI_INFO| Group size for frequency integration:                              24
  INTEG_INFO| MINIMAX quadrature
  INTEG_INFO| Number of integration points:                                   14
  INTEG_INFO| Number of integration points per RPA group:                     14
  MATRIX_INFO| Number row processes:                                           4
  MATRIX_INFO| Number column processes:                                        6
  MATRIX_INFO| Row block size:                                               111
  MATRIX_INFO| Column block size:                                             38
 SIZE(fm_matrix_L_RI_metric, 1) =           1
 SIZE(fm_matrix_L_RI_metric, 2) =           1
 SIZE(fm_matrix_L_RI_metric, 1) =           1
 SIZE(fm_matrix_L_RI_metric, 2) =           1
 SIZE(fm_matrix_L_RI_metric, 1) =           1
 SIZE(fm_matrix_L_RI_metric, 2) =           1
 SIZE(fm_matrix_L_RI_metric, 1) =           1
 SIZE(fm_matrix_L_RI_metric, 2) =           1
 SIZE(fm_matrix_L_RI_metric, 1) =           1
 SIZE(fm_matrix_L_RI_metric, 2) =           1
 SIZE(fm_matrix_L_RI_metric, 1) =           1
 SIZE(fm_matrix_L_RI_metric, 2) =           1
 SIZE(fm_matrix_L_RI_metric, 1) =           1
 SIZE(fm_matrix_L_RI_metric, 2) =           1
 SIZE(fm_matrix_L_RI_metric, 1) =           1
 SIZE(fm_matrix_L_RI_metric, 2) =           1
 SIZE(fm_matrix_L_RI_metric, 1) =           1
 SIZE(fm_matrix_L_RI_metric, 2) =           1
 SIZE(fm_matrix_L_RI_metric, 1) =           1
 SIZE(fm_matrix_L_RI_metric, 2) =           1
 SIZE(fm_matrix_L_RI_metric, 1) =           1
 SIZE(fm_matrix_L_RI_metric, 2) =           1
 SIZE(fm_matrix_L_RI_metric, 1) =           1
 SIZE(fm_matrix_L_RI_metric, 2) =           1
 SIZE(fm_matrix_L_RI_metric, 1) =           1
 SIZE(fm_matrix_L_RI_metric, 2) =           1
 SIZE(fm_matrix_L_RI_metric, 1) =           1
 SIZE(fm_matrix_L_RI_metric, 2) =           1
 SIZE(fm_matrix_L_RI_metric, 1) =           1
 SIZE(fm_matrix_L_RI_metric, 2) =           1
 SIZE(fm_matrix_L_RI_metric, 1) =           1
 SIZE(fm_matrix_L_RI_metric, 2) =           1
 SIZE(fm_matrix_L_RI_metric, 1) =           1
 SIZE(fm_matrix_L_RI_metric, 2) =           1
 SIZE(fm_matrix_L_RI_metric, 1) =           1
 SIZE(fm_matrix_L_RI_metric, 2) =           1
 SIZE(fm_matrix_L_RI_metric, 1) =           1
 SIZE(fm_matrix_L_RI_metric, 2) =           1
 SIZE(fm_matrix_L_RI_metric, 1) =           1
 SIZE(fm_matrix_L_RI_metric, 2) =           1
 SIZE(fm_matrix_L_RI_metric, 1) =           1
 SIZE(fm_matrix_L_RI_metric, 2) =           1
 SIZE(fm_matrix_L_RI_metric, 1) =           1
 SIZE(fm_matrix_L_RI_metric, 2) =           1
 SIZE(fm_matrix_L_RI_metric, 1) =           1
 SIZE(fm_matrix_L_RI_metric, 2) =           1
 SIZE(fm_matrix_L_RI_metric, 1) =           1
 SIZE(fm_matrix_L_RI_metric, 2) =           1
  INTEG_INFO| Range for the minimax approximation:                     3314.3055
  INTEG_INFO| Minimax parameters:                    Weights           Abscissas
                                                2.0495283070        0.2504836316
                                                2.6371852898        0.8226338634
                                                4.0447666684        1.6365494221
                                                6.8312113878        2.9583787495
                                               12.1476567340        5.2598856258
                                               22.3403366878        9.4320314679
                                               42.2862461295       17.2285440747
                                               82.4406484049       32.2266439903
                                              166.0958001046       61.9961237754
                                              347.6018724986      123.2317785420
                                              761.3782575904      254.6121084450
                                             1770.3000694189      551.7723349292
                                             4579.9071591197     1280.8570101133
                                            17501.5737432541     3538.9920893772
  INTEG_INFO| Range for the minimax approximation:                     3314.3055
  INTEG_INFO| Gap:                                                        0.0494
  INTEG_INFO| Minimax parameters of the time grid:   Weights           Abscissas
                                                0.0003035506        0.0001159456
                                                0.0008470359        0.0006688812
                                                0.0018645521        0.0019648350
                                                0.0039649104        0.0047544571
                                                0.0081905152        0.0105946345
                                                0.0163684029        0.0224380489
                                                0.0317025639        0.0456919001
                                                0.0597094433        0.0900261802
                                                0.1097256111        0.1723794053
                                                0.1973946154        0.3219143775
                                                0.3491268733        0.5883127837
                                                0.6121180919        1.0567594431
                                                1.0879866863        1.8816837314
                                                2.1377415600        3.4094734948
  INTEG_INFO| Maximum deviation of the imag. time fit:                  5.69E-03
 e_fermi = (a.u. / eV)  -9.0201437002554313E-002  -2.4544713022765055     
  MEMORY_INFO| Memory cut:                                                     1
  MEMORY_INFO| Im. time group size for RI functions:                           1
  MEMORY_INFO| Im. time group size for local P matrix:                         1
  SPARSITY_INFO| Eps pgf orb for imaginary time:                        1.00E-30
  SPARSITY_INFO| Eps filter for imaginary time:                         1.00E-30
  SPARSITY_INFO| Second eps filter for imaginary time:                  1.00E-30
  RPA_IM_TIME_INFO| Number of periodic images T for Chi_PQ^T(it):              1
  RPA_IM_TIME_INFO| Number of periodic images T for Chi_PQ^T(it):              1
  RPA_IM_TIME_INFO| Number of periodic images T for Chi_PQ^T(it):              1
  RPA_IM_TIME_INFO| Number of periodic images T for Chi_PQ^T(it):              1
  RPA_IM_TIME_INFO| Number of periodic images T for Chi_PQ^T(it):              1
  RPA_IM_TIME_INFO| Number of periodic images T for Chi_PQ^T(it):              1
  RPA_IM_TIME_INFO| Number of periodic images T for Chi_PQ^T(it):              1
  RPA_IM_TIME_INFO| Number of periodic images T for Chi_PQ^T(it):              1
  RPA_IM_TIME_INFO| Number of periodic images T for Chi_PQ^T(it):              1
[...]
         837  0.75911507114375620      ( -2.2863173706726028E-003, -3.1691310755410651E-003)
         838  0.76398416594163199      ( -2.2744762589748850E-003, -3.1626284488625988E-003)
         839  0.76891204574707361      ( -2.2626117413866243E-003, -3.1560743969989489E-003)
         840  0.77389980636334754      ( -2.2507237410171249E-003, -3.1494687474156609E-003)
         841  0.77894857098597181      ( -2.2388121773579315E-003, -3.1428113253929948E-003)
         842  0.78405949106411099      ( -2.2268769661966240E-003, -3.1361019538630863E-003)
         843  0.78923374719468087      ( -2.2149180195315619E-003, -3.1293404532392313E-003)
         844  0.79447255005062556      ( -2.2029352454872716E-003, -3.1225266412371437E-003)
         845  0.79977714134489430      ( -2.1909285482313175E-003, -3.1156603326885201E-003)
         846  0.80514879483173596      ( -2.1788978278920478E-003, -3.1087413393455720E-003)
         847  0.81058881734700439      ( -2.1668429804782871E-003, -3.1017694696773160E-003)
         848  0.81609854988925890      ( -2.1547638978006516E-003, -3.0947445286568370E-003)
         849  0.82167936874354153      ( -2.1426604673949914E-003, -3.0876663175389042E-003)
         850  0.82733268664980564      ( -2.1305325724482057E-003, -3.0805346336286129E-003)
         851  0.83305995401808353      ( -2.1183800917267083E-003, -3.0733492700397410E-003)
         852  0.83886266019258626      ( -2.1062028995078269E-003, -3.0661100154432334E-003)
         853  0.84474233476705052      ( -2.0940008655146256E-003, -3.0588166538052220E-003)
         854  0.85070054895377256      ( -2.0817738548542944E-003, -3.0514689641139318E-003)
         855  0.85673891700890537      ( -2.0695217279607108E-003, -3.0440667200964285E-003)
         856  0.86285909771673230      ( -2.0572443405412312E-003, -3.0366096899228385E-003)
         857  0.86906279593578573      ( -2.0449415435287478E-003, -3.0290976358999973E-003)
         858  0.87535176420983818      ( -2.0326131830387499E-003, -3.0215303141522504E-003)
         859  0.88172780444696319      ( -2.0202591003323162E-003, -3.0139074742906355E-003)
         860  0.88819276967004490      ( -2.0078791317855510E-003, -3.0062288590688201E-003)
         861  0.89474856584231099      ( -1.9954731088656546E-003, -2.9984942040266163E-003)
         862  0.90139715377166429      ( -1.9830408581146515E-003, -2.9907032371197795E-003)
         863  0.90814055109781178      ( -1.9705822011409292E-003, -2.9828556783365219E-003)
         864  0.91498083436642097      ( -1.9580969546196315E-003, -2.9749512392999735E-003)
         865  0.92192014119478394      ( -1.9455849303021988E-003, -2.9669896228563721E-003)
         866  0.92896067253373171      ( -1.9330459350360388E-003, -2.9589705226486444E-003)
         867  0.93610469503082927      ( -1.9204797707948571E-003, -2.9508936226753189E-003)
         868  0.94335454350018144      ( -1.9078862347206118E-003, -2.9427585968340567E-003)
         869  0.95071262350450036      ( -1.8952651191776737E-003, -2.9345651084495684E-003)
         870  0.95818141405543900      ( -1.8826162118203086E-003, -2.9263128097860485E-003)
         871  0.96576347043855215      ( -1.8699392956742021E-003, -2.9180013415432901E-003)
         872  0.97346142716965245      ( -1.8572341492329816E-003, -2.9096303323362807E-003)
         873  0.98127800108974561      ( -1.8445005465708548E-003, -2.9011993981585345E-003)
         874  0.98921599460618381      ( -1.8317382574722374E-003, -2.8927081418280813E-003)
         875  0.99727829908815668      ( -1.8189470475795497E-003, -2.8841561524165196E-003)
 
 n_level_gw =          18
 AFTER evaluate_pade_function/get_z_and_m_value_pade
 energy_val =  0.10678804181366794     
 nparam_pade =           8
 omega_points_pade = (  0.0000000000000000     ,  9.9999999999999998E-013) (  0.0000000000000000     ,  3.9782473475931619E-002) (  0.0000000000000000     ,  8.2842712474619024E-002) (  0.0000000000000000     , 0.13363572758385980     ) (  0.0000000000000000     , 0.20000000000000004     ) (  0.0000000000000000     , 0.29932115253309782     ) (  0.0000000000000000     , 0.48284271247461907     ) (  0.0000000000000000     , 0.99727829908815668     )
 coeff_pade = ( -6.0767207691946358E-003, -2.9880241237917655E-014) ( -4.6635114839915373     , 0.75944904744555519     ) (  2.7086998049502906     , -3.3215297382095543     ) (  3.3810181783281346     , -9.2582107183351317E-002) (-0.44957502129014965     , -1.7439391579022299     ) ( -1.6372609533940254     , 0.35081975892194373     ) ( -2.6408655624756294     , -1.2445762475102156     ) (-0.26892911663154850     , -1.5953424316103861     )
 sigma_c_pade = (-0.28610576629191126     , -1.4808677066227835E-002)
 z_value(n_level_gw) =  0.94215366213134544     
 m_value(n_level_gw) =  -6.1397986542656151E-002
 level_energ_GW =   4.2185391110240153E-002
 
 
 n_level_gw =          18
 AFTER get_sigma_c_newton_pade
 vec_gw_energ(n_level_gw) = -0.33427057676068883     
 Eigenval_scf(n_level_gw_ref) =  0.45133810351521303     
 nparam_pade =           8
 level_energ_GW =   4.2185391110240153E-002
 
  
  GW quasiparticle energies
  -------------------------
   
  The GW quasiparticle energies are calculated according to: 
  E_GW = E_SCF + Z * ( Sigc(E_SCF) + Sigx - vxc )
   
  The energy unit of the following table is eV.  Sigc_fit is a very conservative
  estimate of the statistical error of the fitting.
   
            MO      E_SCF       Sigc   Sigc_fit   Sigx-vxc          Z       E_GW
     2 ( occ )  -1032.674      0.800      0.000    -69.728      1.000  -1101.602
     3 ( occ )    -56.140     11.359      0.000    -19.905      1.000    -64.686
     4 ( occ )    -56.136     11.356      0.000    -19.906      1.000    -64.686
     5 ( occ )    -28.321      5.720      0.000    -12.980      1.000    -35.580
     6 ( occ )    -28.296      5.899      0.000    -12.980      1.000    -35.378
     7 ( occ )    -28.296      5.899      0.000    -12.980      1.000    -35.378
     8 ( occ )    -28.290      6.046      0.000    -12.978      1.000    -35.222
     9 ( occ )    -28.290      6.046      0.000    -12.978      1.000    -35.222
    10 ( occ )    -28.266      5.938      0.000    -12.987      1.000    -35.314
    11 ( occ )     -3.126     -0.377      0.000     -1.328      1.000     -4.831
    12 ( vir )     -1.783     -1.054      0.000      2.278      1.000     -0.559
    13 ( vir )     -0.958     -0.984      0.000      2.095      1.000      0.154
    14 ( vir )     -0.958     -0.984      0.000      2.095      1.000      0.154
    15 ( vir )     -0.493     -1.538      0.000      1.960      1.000     -0.071
    16 ( vir )      0.063     -1.138      0.000      1.617      1.000      0.542
    17 ( vir )      0.063     -1.138      0.000      1.617      1.000      0.542
    18 ( vir )      0.315     -0.566      0.000      1.293      1.000      1.042
    19 ( vir )      0.451     -0.334      0.000      1.025      1.000      1.143
    20 ( vir )      0.922     -0.603      0.000      1.404      1.000      1.723
    21 ( vir )      0.922     -0.603      0.000      1.404      1.000      1.723
   
  GW HOMO-LUMO gap (eV)                                                     4.27
  

  Total RI-RPA Time=                                                  311.814330
  RI-RPA energy  =                                             -0.54013015775775

  Total EXX Time=                                                       7.928139
  EXX energy  =                                               -27.91031955291266

 ENERGY| Total FORCE_EVAL ( QS ) energy (a.u.):             -324.244149903982418


 -------------------------------------------------------------------------------
 -                                                                             -
 -                                DBCSR STATISTICS                             -
 -                                                                             -
 -------------------------------------------------------------------------------
 COUNTER                                    TOTAL       BLAS       SMM       ACC
 flops    46 x    11 x    46               186208     100.0%      0.0%      0.0%
 flops    46 x    46 x    11               279312     100.0%      0.0%      0.0%
 flops    46 x    46 x    46               778688     100.0%      0.0%      0.0%
 flops    92 x    92 x    46              1557376     100.0%      0.0%      0.0%
 flops   230 x   230 x   230           2725408000     100.0%      0.0%      0.0%
 flops    46 x   920 x    46           3550817280     100.0%      0.0%      0.0%
 flops   460 x    92 x    46           4360652800     100.0%      0.0%      0.0%
 flops   460 x    92 x   230          10901632000     100.0%      0.0%      0.0%
 flops    46 x   874 x    46          16866382080     100.0%      0.0%      0.0%
 flops   230 x   230 x   368          17442611200     100.0%      0.0%      0.0%
 flops   230 x   230 x   345          32704896000     100.0%      0.0%      0.0%
 flops inhomo. stacks                           0       0.0%      0.0%      0.0%
 flops total                        88.555201E+09     100.0%      0.0%      0.0%
 flops max/rank                     20.877869E+09     100.0%      0.0%      0.0%
 matmuls inhomo. stacks                         0       0.0%      0.0%      0.0%
 matmuls total                               8624     100.0%      0.0%      0.0%
 number of processed stacks                  2748     100.0%      0.0%      0.0%
 average stack size                                     3.1       0.0       0.0
 marketing flops                    88.910496E+09
 -------------------------------------------------------------------------------
 # multiplications                            902
 max memory usage/rank             515.588096E+06
 # max total images/rank                        3
 # max 3D layers                                1
 # MPI messages exchanged                  391704
 MPI messages size (bytes):
  total size                         3.907102E+09
  min size                           0.000000E+00
  max size                         846.400000E+03
  average size                       9.974629E+03
 MPI breakdown and total messages size (bytes):
             size <=      128              377976                        0
       128 < size <=     8192                  22                   153824
      8192 < size <=    32768                   6                   101568
     32768 < size <=   131072                3396                114974976
    131072 < size <=  4194304               10304               3791872000
   4194304 < size <= 16777216                   0                        0
  16777216 < size                               0                        0
 -------------------------------------------------------------------------------

 *** WARNING in dbcsr_mm.F:278 :: Using a non-square number of MPI ranks ***
 *** might lead to poor performance. Used ranks: 24 Suggested: 25 49     ***

 -------------------------------------------------------------------------------
 -                                                                             -
 -                      DBCSR MESSAGE PASSING PERFORMANCE                      -
 -                                                                             -
 -------------------------------------------------------------------------------

 ROUTINE             CALLS      AVE VOLUME [Bytes]
 MP_Group               26
 MP_Bcast               12                     12.
 MP_Allreduce         5095                      8.
 MP_Alltoall          2596                  68351.
 MP_Wait             49136
 MP_ISend            36250                  23347.
 MP_IRecv            36250                     62.
 MP_Memory           66206
 -------------------------------------------------------------------------------


 MEMORY| Estimated peak process memory [MiB]                                 492

 -------------------------------------------------------------------------------
 ----                             MULTIGRID INFO                            ----
 -------------------------------------------------------------------------------
 count for grid        1:         107564          cutoff [a.u.]          200.00
 count for grid        2:           8184          cutoff [a.u.]           66.67
 count for grid        3:           6993          cutoff [a.u.]           22.22
 count for grid        4:          10608          cutoff [a.u.]            7.41
 total gridlevel count  :         133349

 -------------------------------------------------------------------------------
 -                                                                             -
 -                         MESSAGE PASSING PERFORMANCE                         -
 -                                                                             -
 -------------------------------------------------------------------------------

 ROUTINE             CALLS      AVE VOLUME [Bytes]
 MP_Group                5
 MP_Bcast              119                2283258.
 MP_Allreduce          341                  38861.
 MP_Sync                72
 MP_Alltoall           123                3782346.
 MP_ISendRecv          276                  58640.
 MP_Wait               940
 MP_comm_split          10
 MP_ISend             3188                  78088.
 MP_IRecv             2548                 300539.
 MP_Recv                 5                   1472.
 -------------------------------------------------------------------------------


 -------------------------------------------------------------------------------
 -                                                                             -
 -                           R E F E R E N C E S                               -
 -                                                                             -
 -------------------------------------------------------------------------------
 
 CP2K version 7.0 (Development Version), the CP2K developers group (2018).
 CP2K is freely available from https://www.cp2k.org/ .

 Schuett, Ole; Messmer, Peter; Hutter, Juerg; VandeVondele, Joost. 
 Electronic Structure Calculations on Graphics Processing Units, John Wiley & Sons, Ltd, 173-190 (2016). 
 GPU-Accelerated Sparse Matrix-Matrix Multiplication for Linear Scaling Density Functional Theory.
 https://dx.doi.org/10.1002/9781118670712.ch8


 Del Ben, M; Schuett, O; Wentz, T; Messmer, P; Hutter, J;
 VandeVondele, J. 
 COMPUTER PHYSICS COMMUNICATIONS, 187, 120-129 (2015). 
 Enabling simulation at the fifth rung of DFT: Large scale RPA
 calculations with excellent time to solution.
 https://dx.doi.org/10.1016/j.cpc.2014.10.021


 Borstnik, U; VandeVondele, J; Weber, V; Hutter, J. 
 PARALLEL COMPUTING, 40 (5-6), 47-58 (2014). 
 Sparse matrix multiplication: The distributed block-compressed sparse
 row library.
 https://dx.doi.org/10.1016/j.parco.2014.03.012


 Hutter, J; Iannuzzi, M; Schiffmann, F; VandeVondele, J. 
 WILEY INTERDISCIPLINARY REVIEWS-COMPUTATIONAL MOLECULAR SCIENCE, 4 (1), 15-25 (2014). 
 CP2K: atomistic simulations of condensed matter systems.
 https://dx.doi.org/10.1002/wcms.1159


 Del Ben, M; Hutter, J; VandeVondele, J. 
 JOURNAL OF CHEMICAL THEORY AND COMPUTATION, 9 (6), 2654-2671 (2013). 
 Electron Correlation in the Condensed Phase from a Resolution of
 Identity Approach Based on the Gaussian and Plane Waves Scheme.
 https://dx.doi.org/10.1021/ct4002202


 Del Ben, M; Hutter, J; VandeVondele, J. 
 JOURNAL OF CHEMICAL THEORY AND COMPUTATION, 8 (11), 4177-4188 (2012). 
 Second-Order Moller-Plesset Perturbation Theory in the Condensed Phase:
 An Efficient and Massively Parallel Gaussian and Plane Waves Approach.
 https://dx.doi.org/10.1021/ct300531w


 Guidon, M; Hutter, J; VandeVondele, J. 
 JOURNAL OF CHEMICAL THEORY AND COMPUTATION, 5 (11), 3010-3021 (2009). 
 Robust Periodic Hartree-Fock Exchange for Large-Scale Simulations Using
 Gaussian Basis Sets.
 https://dx.doi.org/10.1021/ct900494g


 Guidon, M; Schiffmann, F; Hutter, J; VandeVondele, J. 
 JOURNAL OF CHEMICAL PHYSICS, 128 (21), 214104 (2008). 
 Ab initio molecular dynamics using hybrid density functionals.
 https://dx.doi.org/10.1063/1.2931945


 Frigo, M; Johnson, SG. 
 PROCEEDINGS OF THE IEEE, 93 (2), 216-231 (2005). 
 The design and implementation of FFTW3.
 https://dx.doi.org/10.1109/JPROC.2004.840301


 Lippert, G; Hutter, J; Parrinello, M. 
 THEORETICAL CHEMISTRY ACCOUNTS, 103 (2), 124-140 (1999). 
 The Gaussian and augmented-plane-wave density functional method for ab
 initio molecular dynamics simulations.
 https://dx.doi.org/10.1007/s002140050523


 Krack, M; Parrinello, M. 
 PHYSICAL CHEMISTRY CHEMICAL PHYSICS, 2 (10), 2105-2112 (2000). 
 All-electron ab-initio molecular dynamics.
 https://dx.doi.org/10.1039/b001167n


 Martyna, GJ; Tuckerman, ME. 
 JOURNAL OF CHEMICAL PHYSICS, 110 (6), 2810-2821 (1999). 
 A reciprocal space based method for treating long range interactions in
 ab initio and force-field-based calculations in clusters.
 https://dx.doi.org/10.1063/1.477923


 Perdew, JP; Burke, K; Ernzerhof, M. 
 PHYSICAL REVIEW LETTERS, 77 (18), 3865-3868 (1996). 
 Generalized gradient approximation made simple.
 https://dx.doi.org/10.1103/PhysRevLett.77.3865


 -------------------------------------------------------------------------------
 -                                                                             -
 -                                T I M I N G                                  -
 -                                                                             -
 -------------------------------------------------------------------------------
 SUBROUTINE                       CALLS  ASD         SELF TIME        TOTAL TIME
                                MAXIMUM       AVERAGE  MAXIMUM  AVERAGE  MAXIMUM
 CP2K                                 1  1.0    0.019    0.027  329.478  329.479
 qs_energies                          1  2.0    0.000    0.001  327.779  327.791
 mp2_main                             1  3.0    0.001    0.006  319.753  319.762
 mp2_gpw_main                         1  4.0    0.000    0.001  311.811  311.814
 rpa_ri_compute_en                    1  5.0    0.000    0.000  302.091  302.092
 rpa_num_int                          1  6.0    0.001    0.005  302.088  302.091
 get_l_sq_wghts_sin_tf_t_to_w         2  7.0  140.642  142.925  142.987  142.988
 get_l_sq_wghts_cos_tf_t_to_w         2  7.0  140.617  142.641  142.651  142.653
 mp_sum_dm                           20  7.7    5.371   18.856    5.371   18.856
 mp2_ri_gpw_compute_in                1  5.0    0.000    0.000    8.929    9.715
 dbcsr_multiply_generic             902  9.9    0.053    0.060    7.851    9.474
 compute_low_sc_3c_integrals          1  6.0    2.778    3.091    8.153    8.940
 multiply_cannon                    902 10.9    0.135    0.151    5.540    8.049
 compute_vec_Sigma_x_minus_vxc_       1  4.0    0.000    0.000    7.928    7.928
 GW_postprocessing                    1  7.0    0.000    0.000    7.916    7.916
 compute_self_energy_im_time_gw       1  8.0    0.005    0.005    7.907    7.907
 qs_ks_build_kohn_sham_matrix         2  6.0    0.001    0.002    7.142    7.145
 -------------------------------------------------------------------------------

 The number of warnings for this run is : 1
 
 -------------------------------------------------------------------------------
  **** **** ******  **  PROGRAM ENDED AT                 2019-06-07 03:22:26.136
 ***** ** ***  *** **   PROGRAM RAN ON                                    tcopt4
 **    ****   ******    PROGRAM RAN BY                                   wilhelm
 ***** **    ** ** **   PROGRAM PROCESS ID                                 52206
  **** **  *******  **  PROGRAM STOPPED IN /data/wilhelm/2_job_test/11_GW100/3_c
                                           alcs/08_Na2
