 DBCSR| CPU Multiplication driver                                           BLAS
 DBCSR| Multrec recursion limit                                              512
 DBCSR| Multiplication stack size                                           1000
 DBCSR| Maximum elements for images                                    UNLIMITED
 DBCSR| Multiplicative factor virtual images                                   1
 DBCSR| Use multiplication densification                                       T
 DBCSR| Multiplication size stacks                                             3
 DBCSR| Number of 3D layers                                               SINGLE
 DBCSR| Use MPI memory allocation                                              T
 DBCSR| Use RMA algorithm                                                      F
 DBCSR| Use Communication thread                                               T
 DBCSR| Communication thread load                                             87


  **** **** ******  **  PROGRAM STARTED AT               2019-06-08 10:33:10.898
 ***** ** ***  *** **   PROGRAM STARTED ON                                tcopt4
 **    ****   ******    PROGRAM STARTED BY                               wilhelm
 ***** **    ** ** **   PROGRAM PROCESS ID                                140548
  **** **  *******  **  PROGRAM STARTED IN /data/wilhelm/2_job_test/11_GW100/3_c
                                           alcs/39_SiH4

 CP2K| version string:                    CP2K version 7.0 (Development Version)
 CP2K| source code revision number:                                  git:bc2813a
 CP2K| cp2kflags: libint fftw3 libxc pexsi elpa=201705 parallel mpi3 scalapack q
 CP2K|            uip libderiv_max_am1=5 libint_max_am=6
 CP2K| is freely available from                            https://www.cp2k.org/
 CP2K| Program compiled at                         Sun Jun  2 14:38:23 CEST 2019
 CP2K| Program compiled on                                                tcopt4
 CP2K| Program compiled for                            local_valgrind_March_2019
 CP2K| Data directory path              /data/wilhelm/1_git_repository/cp2k/data
 CP2K| Input file name                                                    GW.inp

 GLOBAL| Force Environment number                                              1
 GLOBAL| Basis set file name                              BASIS_def2_QZVP_RI_ALL
 GLOBAL| Potential file name                                           POTENTIAL
 GLOBAL| MM Potential file name                                     MM_POTENTIAL
 GLOBAL| Coordinate file name                                        39_SiH4.xyz
 GLOBAL| Method name                                                        CP2K
 GLOBAL| Project name                                                   ALL_ELEC
 GLOBAL| Preferred FFT library                                             FFTW3
 GLOBAL| Preferred diagonalization lib.                                       SL
 GLOBAL| Run type                                                         ENERGY
 GLOBAL| All-to-all communication in single precision                          F
 GLOBAL| FFTs using library dependent lengths                                  F
 GLOBAL| Global print level                                               MEDIUM
 GLOBAL| MPI I/O enabled                                                       T
 GLOBAL| Total number of message passing processes                            24
 GLOBAL| Number of threads for this process                                    1
 GLOBAL| This output is from process                                           0
 GLOBAL| CPU model name :  Intel(R) Xeon(R) CPU E5-2697 v3 @ 2.60GHz

 MEMORY| system memory details [Kb]
 MEMORY|                        rank 0           min           max       average
 MEMORY| MemTotal            396954008     396954008     396954008     396954008
 MEMORY| MemFree             348182692     348182692     348182692     348182692
 MEMORY| Buffers                373160        373160        373160        373160
 MEMORY| Cached               42840136      42840136      42840136      42840136
 MEMORY| Slab                  1474360       1474360       1474360       1474360
 MEMORY| SReclaimable          1336540       1336540       1336540       1336540
 MEMORY| MemLikelyFree       392732528     392732528     392732528     392732528


 *** Fundamental physical constants (SI units) ***

 *** Literature: B. J. Mohr and B. N. Taylor,
 ***             CODATA recommended values of the fundamental physical
 ***             constants: 2006, Web Version 5.1
 ***             http://physics.nist.gov/constants

 Speed of light in vacuum [m/s]                             2.99792458000000E+08
 Magnetic constant or permeability of vacuum [N/A**2]       1.25663706143592E-06
 Electric constant or permittivity of vacuum [F/m]          8.85418781762039E-12
 Planck constant (h) [J*s]                                  6.62606896000000E-34
 Planck constant (h-bar) [J*s]                              1.05457162825177E-34
 Elementary charge [C]                                      1.60217648700000E-19
 Electron mass [kg]                                         9.10938215000000E-31
 Electron g factor [ ]                                     -2.00231930436220E+00
 Proton mass [kg]                                           1.67262163700000E-27
 Fine-structure constant                                    7.29735253760000E-03
 Rydberg constant [1/m]                                     1.09737315685270E+07
 Avogadro constant [1/mol]                                  6.02214179000000E+23
 Boltzmann constant [J/K]                                   1.38065040000000E-23
 Atomic mass unit [kg]                                      1.66053878200000E-27
 Bohr radius [m]                                            5.29177208590000E-11

 *** Conversion factors ***

 [u] -> [a.u.]                                              1.82288848426455E+03
 [Angstrom] -> [Bohr] = [a.u.]                              1.88972613288564E+00
 [a.u.] = [Bohr] -> [Angstrom]                              5.29177208590000E-01
 [a.u.] -> [s]                                              2.41888432650478E-17
 [a.u.] -> [fs]                                             2.41888432650478E-02
 [a.u.] -> [J]                                              4.35974393937059E-18
 [a.u.] -> [N]                                              8.23872205491840E-08
 [a.u.] -> [K]                                              3.15774647902944E+05
 [a.u.] -> [kJ/mol]                                         2.62549961709828E+03
 [a.u.] -> [kcal/mol]                                       6.27509468713739E+02
 [a.u.] -> [Pa]                                             2.94210107994716E+13
 [a.u.] -> [bar]                                            2.94210107994716E+08
 [a.u.] -> [atm]                                            2.90362800883016E+08
 [a.u.] -> [eV]                                             2.72113838565563E+01
 [a.u.] -> [Hz]                                             6.57968392072181E+15
 [a.u.] -> [1/cm] (wave numbers)                            2.19474631370540E+05
 [a.u./Bohr**2] -> [1/cm]                                   5.14048714338585E+03
 

 CELL_TOP| Volume [angstrom^3]:                                         4096.000
 CELL_TOP| Vector a [angstrom    16.000     0.000     0.000    |a| =      16.000
 CELL_TOP| Vector b [angstrom     0.000    16.000     0.000    |b| =      16.000
 CELL_TOP| Vector c [angstrom     0.000     0.000    16.000    |c| =      16.000
 CELL_TOP| Angle (b,c), alpha [degree]:                                   90.000
 CELL_TOP| Angle (a,c), beta  [degree]:                                   90.000
 CELL_TOP| Angle (a,b), gamma [degree]:                                   90.000
 CELL_TOP| Numerically orthorhombic:                                         YES

 GENERATE|  Preliminary Number of Bonds generated:                             0
 GENERATE|  Achieved consistency in connectivity generation.

 CELL| Volume [angstrom^3]:                                             4096.000
 CELL| Vector a [angstrom]:      16.000     0.000     0.000    |a| =      16.000
 CELL| Vector b [angstrom]:       0.000    16.000     0.000    |b| =      16.000
 CELL| Vector c [angstrom]:       0.000     0.000    16.000    |c| =      16.000
 CELL| Angle (b,c), alpha [degree]:                                       90.000
 CELL| Angle (a,c), beta  [degree]:                                       90.000
 CELL| Angle (a,b), gamma [degree]:                                       90.000
 CELL| Numerically orthorhombic:                                             YES

 CELL_REF| Volume [angstrom^3]:                                         4096.000
 CELL_REF| Vector a [angstrom    16.000     0.000     0.000    |a| =      16.000
 CELL_REF| Vector b [angstrom     0.000    16.000     0.000    |b| =      16.000
 CELL_REF| Vector c [angstrom     0.000     0.000    16.000    |c| =      16.000
 CELL_REF| Angle (b,c), alpha [degree]:                                   90.000
 CELL_REF| Angle (a,c), beta  [degree]:                                   90.000
 CELL_REF| Angle (a,b), gamma [degree]:                                   90.000
 CELL_REF| Numerically orthorhombic:                                         YES

 *******************************************************************************
 *******************************************************************************
 **                                                                           **
 **     #####                         ##              ##                      **
 **    ##   ##            ##          ##              ##                      **
 **   ##     ##                       ##            ######                    **
 **   ##     ##  ##   ##  ##   #####  ##  ##   ####   ##    #####    #####    **
 **   ##     ##  ##   ##  ##  ##      ## ##   ##      ##   ##   ##  ##   ##   **
 **   ##  ## ##  ##   ##  ##  ##      ####     ###    ##   ######   ######    **
 **    ##  ###   ##   ##  ##  ##      ## ##      ##   ##   ##       ##        **
 **     #######   #####   ##   #####  ##  ##  ####    ##    #####   ##        **
 **           ##                                                    ##        **
 **                                                                           **
 **                                                ... make the atoms dance   **
 **                                                                           **
 **            Copyright (C) by CP2K developers group (2000 - 2019)           **
 **                                                                           **
 *******************************************************************************

 DFT| Spin restricted Kohn-Sham (RKS) calculation                            RKS
 DFT| Multiplicity                                                             1
 DFT| Number of spin states                                                    1
 DFT| Charge                                                                   0
 DFT| Self-interaction correction (SIC)                                       NO
 DFT| Cutoffs: density                                              1.000000E-10
 DFT|          gradient                                             1.000000E-10
 DFT|          tau                                                  1.000000E-10
 DFT|          cutoff_smoothing_range                               0.000000E+00
 DFT| XC density smoothing                                                  NONE
 DFT| XC derivatives                                                          PW
 FUNCTIONAL| ROUTINE=NEW
 FUNCTIONAL| PBE:
 FUNCTIONAL| J.P.Perdew, K.Burke, M.Ernzerhof, Phys. Rev. Letter, vol. 77, n 18,
 FUNCTIONAL|  pp. 3865-3868, (1996){spin unpolarized}                           

 QS| Method:                                                                GAPW
 QS| Density plane wave grid type                        NON-SPHERICAL FULLSPACE
 QS| Number of grid levels:                                                    4
 QS| Density cutoff [a.u.]:                                                200.0
 QS| Multi grid cutoff [a.u.]: 1) grid level                               200.0
 QS|                           2) grid level                                66.7
 QS|                           3) grid level                                22.2
 QS|                           4) grid level                                 7.4
 QS| Grid level progression factor:                                          3.0
 QS| Relative density cutoff [a.u.]:                                        25.0
 QS| Consistent realspace mapping and integration 
 QS| Interaction thresholds: eps_pgf_orb:                                1.0E-05
 QS|                         eps_filter_matrix:                          0.0E+00
 QS|                         eps_core_charge:                            1.0E-12
 QS|                         eps_rho_gspace:                             1.0E-10
 QS|                         eps_rho_rspace:                             1.0E-10
 QS|                         eps_gvg_rspace:                             1.0E-05
 QS|                         eps_ppl:                                    1.0E-02
 QS|                         eps_ppnl:                                   1.0E-07
 QS| GAPW|                   eps_fit:                                    1.0E-04
 QS| GAPW|                   eps_iso:                                    1.0E-12
 QS| GAPW|                   eps_svd:                                    1.0E-08
 QS| GAPW|                   eps_cpc:                                    1.0E-10
 QS| GAPW|   atom-r-grid: quadrature:                 GC_LOG                        
 QS| GAPW|      atom-s-grid:  max l :                                          8
 QS| GAPW|      max_l_rho0 :                                                   2


 ATOMIC KIND INFORMATION

  1. Atomic kind: Si                                    Number of atoms:       1

     Orbital Basis Set                                                 def2-QZVP

       Number of orbital shell sets:                                          22
       Number of orbital shells:                                              22
       Number of primitive Cartesian functions:                               41
       Number of Cartesian basis functions:                                   86
       Number of spherical basis functions:                                   70
       Norm type:                                                              2

       Normalised Cartesian orbitals:

                        Set   Shell   Orbital            Exponent    Coefficient

                          1       1    1s           918070.695650       0.320546
                                                    137485.253860       0.599882
                                                     31287.772714       1.039027
                                                      8861.610570       1.698802
                                                      2890.694316       2.647463
                                                      1043.406398       3.916568
                                                       406.801603       5.395064
                                                       168.483602       6.577219
                                                        73.185629       6.469897
                                                        32.998485       4.232553

                          2       1    1s              278.787513       1.222046
                                                        85.910229       4.437120
                                                        32.992604       7.767487

                          3       1    1s               15.033693       5.441384

                          4       1    1s                5.725751       2.638059

                          5       1    1s                2.614652       1.465448

                          6       1    1s                1.175783       0.804740

                          7       1    1s                0.354323       0.327310

                          8       1    1s                0.162483       0.182397

                          9       1    1s                0.068332       0.095253

                         10       1    1px            1775.885052       3.626964
                                                       420.837868       5.211749
                                                       136.422902       6.905847
                                                        51.700992       8.064651
                                                        21.559456       8.026053
                                                         9.555920       6.220495
                                                         4.352982       3.458677
                                                         2.009696       1.226385
                         10       1    1py            1775.885052       3.626964
                                                       420.837868       5.211749
                                                       136.422902       6.905847
                                                        51.700992       8.064651
                                                        21.559456       8.026053
                                                         9.555920       6.220495
                                                         4.352982       3.458677
                                                         2.009696       1.226385
                         10       1    1pz            1775.885052       3.626964
                                                       420.837868       5.211749
                                                       136.422902       6.905847
                                                        51.700992       8.064651
                                                        21.559456       8.026053
                                                         9.555920       6.220495
                                                         4.352982       3.458677
                                                         2.009696       1.226385

                         11       1    1px              46.418154       7.482360
                                                         1.907642      -3.205794
                         11       1    1py              46.418154       7.482360
                                                         1.907642      -3.205794
                         11       1    1pz              46.418154       7.482360
                                                         1.907642      -3.205794

                         12       1    1px               0.923372       1.290212
                         12       1    1py               0.923372       1.290212
                         12       1    1pz               0.923372       1.290212

                         13       1    1px               0.345157       0.377104
                         13       1    1py               0.345157       0.377104
                         13       1    1pz               0.345157       0.377104

                         14       1    1px               0.136568       0.118339
                         14       1    1py               0.136568       0.118339
                         14       1    1pz               0.136568       0.118339

                         15       1    1px               0.052987       0.036237
                         15       1    1py               0.052987       0.036237
                         15       1    1pz               0.052987       0.036237

                         16       1    1dx2              2.645000       9.029306
                         16       1    1dxy              2.645000      15.639217
                         16       1    1dxz              2.645000      15.639217
                         16       1    1dy2              2.645000       9.029306
                         16       1    1dyz              2.645000      15.639217
                         16       1    1dz2              2.645000       9.029306

                         17       1    1dx2              0.608000       0.689034
                         17       1    1dxy              0.608000       1.193442
                         17       1    1dxz              0.608000       1.193442
                         17       1    1dy2              0.608000       0.689034
                         17       1    1dyz              0.608000       1.193442
                         17       1    1dz2              0.608000       0.689034

                         18       1    1dx2              0.272000       0.168618
                         18       1    1dxy              0.272000       0.292056
                         18       1    1dxz              0.272000       0.292056
                         18       1    1dy2              0.272000       0.168618
                         18       1    1dyz              0.272000       0.292056
                         18       1    1dz2              0.272000       0.168618

                         19       1    1dx2              0.113000       0.036249
                         19       1    1dxy              0.113000       0.062785
                         19       1    1dxz              0.113000       0.062785
                         19       1    1dy2              0.113000       0.036249
                         19       1    1dyz              0.113000       0.062785
                         19       1    1dz2              0.113000       0.036249

                         20       1    1fx3              0.212000       0.044896
                         20       1    1fx2y             0.212000       0.100391
                         20       1    1fx2z             0.212000       0.100391
                         20       1    1fxy2             0.212000       0.100391
                         20       1    1fxyz             0.212000       0.173882
                         20       1    1fxz2             0.212000       0.100391
                         20       1    1fy3              0.212000       0.044896
                         20       1    1fy2z             0.212000       0.100391
                         20       1    1fyz2             0.212000       0.100391
                         20       1    1fz3              0.212000       0.044896

                         21       1    1fx3              0.541000       0.369529
                         21       1    1fx2y             0.541000       0.826292
                         21       1    1fx2z             0.541000       0.826292
                         21       1    1fxy2             0.541000       0.826292
                         21       1    1fxyz             0.541000       1.431179
                         21       1    1fxz2             0.541000       0.826292
                         21       1    1fy3              0.541000       0.369529
                         21       1    1fy2z             0.541000       0.826292
                         21       1    1fyz2             0.541000       0.826292
                         21       1    1fz3              0.541000       0.369529

                         22       1    1gx4              0.461000       0.132316
                         22       1    1gx3y             0.461000       0.350076
                         22       1    1gx3z             0.461000       0.350076
                         22       1    1gx2y2            0.461000       0.451946
                         22       1    1gx2yz            0.461000       0.782793
                         22       1    1gx2z2            0.461000       0.451946
                         22       1    1gxy3             0.461000       0.350076
                         22       1    1gxy2z            0.461000       0.782793
                         22       1    1gxyz2            0.461000       0.782793
                         22       1    1gxz3             0.461000       0.350076
                         22       1    1gy4              0.461000       0.132316
                         22       1    1gy3z             0.461000       0.350076
                         22       1    1gy2z2            0.461000       0.451946
                         22       1    1gyz3             0.461000       0.350076
                         22       1    1gz4              0.461000       0.132316

     RI Auxiliary Basis Set                                                RI-5Z

       Number of orbital shell sets:                                          48
       Number of orbital shells:                                              48
       Number of primitive Cartesian functions:                               48
       Number of Cartesian basis functions:                                  335
       Number of spherical basis functions:                                  230
       Norm type:                                                              2

       Normalised Cartesian orbitals:

                        Set   Shell   Orbital            Exponent    Coefficient

                          1       1    1s              731.475000     100.244305

                          2       1    1s              151.823000      30.825723

                          3       1    1s               67.672100      16.815792

                          4       1    1s               20.413600       6.844627

                          5       1    1s                9.776410       3.940439

                          6       1    1s                3.915000       1.983622

                          7       1    1s                2.132620       1.257753

                          8       1    1s                1.076300       0.753113

                          9       1    1s                0.592285       0.481181

                         10       1    1s                0.382637       0.346737

                         11       1    1s                0.197098       0.210825

                         12       1    1s                0.110014       0.136143

                         13       1    1px             203.934000    1098.505245
                         13       1    1py             203.934000    1098.505245
                         13       1    1pz             203.934000    1098.505245

                         14       1    1px              60.723800     241.623274
                         14       1    1py              60.723800     241.623274
                         14       1    1pz              60.723800     241.623274

                         15       1    1px              22.800100      71.016788
                         15       1    1py              22.800100      71.016788
                         15       1    1pz              22.800100      71.016788

                         16       1    1px              10.099100      25.662173
                         16       1    1py              10.099100      25.662173
                         16       1    1pz              10.099100      25.662173

                         17       1    1px               4.825970      10.195789
                         17       1    1py               4.825970      10.195789
                         17       1    1pz               4.825970      10.195789

                         18       1    1px               2.390150       4.236152
                         18       1    1py               2.390150       4.236152
                         18       1    1pz               2.390150       4.236152

                         19       1    1px               1.078580       1.566771
                         19       1    1py               1.078580       1.566771
                         19       1    1pz               1.078580       1.566771

                         20       1    1px               0.674151       0.870736
                         20       1    1py               0.674151       0.870736
                         20       1    1pz               0.674151       0.870736

                         21       1    1px               0.458457       0.537729
                         21       1    1py               0.458457       0.537729
                         21       1    1pz               0.458457       0.537729

                         22       1    1px               0.272779       0.280998
                         22       1    1py               0.272779       0.280998
                         22       1    1pz               0.272779       0.280998

                         23       1    1px               0.130881       0.112211
                         23       1    1py               0.130881       0.112211
                         23       1    1pz               0.130881       0.112211

                         24       1    1dx2             56.710400    1928.942135
                         24       1    1dxy             56.710400    3341.025782
                         24       1    1dxz             56.710400    3341.025782
                         24       1    1dy2             56.710400    1928.942135
                         24       1    1dyz             56.710400    3341.025782
                         24       1    1dz2             56.710400    1928.942135

                         25       1    1dx2             17.886300     256.047388
                         25       1    1dxy             17.886300     443.487085
                         25       1    1dxz             17.886300     443.487085
                         25       1    1dy2             17.886300     256.047388
                         25       1    1dyz             17.886300     443.487085
                         25       1    1dz2             17.886300     256.047388

                         26       1    1dx2              6.151280      39.545682
                         26       1    1dxy              6.151280      68.495131
                         26       1    1dxz              6.151280      68.495131
                         26       1    1dy2              6.151280      39.545682
                         26       1    1dyz              6.151280      68.495131
                         26       1    1dz2              6.151280      39.545682

                         27       1    1dx2              2.997370      11.238415
                         27       1    1dxy              2.997370      19.465506
                         27       1    1dxz              2.997370      19.465506
                         27       1    1dy2              2.997370      11.238415
                         27       1    1dyz              2.997370      19.465506
                         27       1    1dz2              2.997370      11.238415

                         28       1    1dx2              1.296760       2.593664
                         28       1    1dxy              1.296760       4.492358
                         28       1    1dxz              1.296760       4.492358
                         28       1    1dy2              1.296760       2.593664
                         28       1    1dyz              1.296760       4.492358
                         28       1    1dz2              1.296760       2.593664

                         29       1    1dx2              0.748983       0.992511
                         29       1    1dxy              0.748983       1.719080
                         29       1    1dxz              0.748983       1.719080
                         29       1    1dy2              0.748983       0.992511
                         29       1    1dyz              0.748983       1.719080
                         29       1    1dz2              0.748983       0.992511

                         30       1    1dx2              0.406464       0.340564
                         30       1    1dxy              0.406464       0.589873
                         30       1    1dxz              0.406464       0.589873
                         30       1    1dy2              0.406464       0.340564
                         30       1    1dyz              0.406464       0.589873
                         30       1    1dz2              0.406464       0.340564

                         31       1    1dx2              0.250199       0.145683
                         31       1    1dxy              0.250199       0.252331
                         31       1    1dxz              0.250199       0.252331
                         31       1    1dy2              0.250199       0.145683
                         31       1    1dyz              0.250199       0.252331
                         31       1    1dz2              0.250199       0.145683

                         32       1    1dx2              0.146150       0.056860
                         32       1    1dxy              0.146150       0.098485
                         32       1    1dxz              0.146150       0.098485
                         32       1    1dy2              0.146150       0.056860
                         32       1    1dyz              0.146150       0.098485
                         32       1    1dz2              0.146150       0.056860

                         33       1    1fx3             12.943700     467.827704
                         33       1    1fx2y            12.943700    1046.094548
                         33       1    1fx2z            12.943700    1046.094548
                         33       1    1fxy2            12.943700    1046.094548
                         33       1    1fxyz            12.943700    1811.888907
                         33       1    1fxz2            12.943700    1046.094548
                         33       1    1fy3             12.943700     467.827704
                         33       1    1fy2z            12.943700    1046.094548
                         33       1    1fyz2            12.943700    1046.094548
                         33       1    1fz3             12.943700     467.827704

                         34       1    1fx3              6.063890      84.946386
                         34       1    1fx2y             6.063890     189.945894
                         34       1    1fx2z             6.063890     189.945894
                         34       1    1fxy2             6.063890     189.945894
                         34       1    1fxyz             6.063890     328.995939
                         34       1    1fxz2             6.063890     189.945894
                         34       1    1fy3              6.063890      84.946386
                         34       1    1fy2z             6.063890     189.945894
                         34       1    1fyz2             6.063890     189.945894
                         34       1    1fz3              6.063890      84.946386

                         35       1    1fx3              2.618370      12.838794
                         35       1    1fx2y             2.618370      28.708417
                         35       1    1fx2z             2.618370      28.708417
                         35       1    1fxy2             2.618370      28.708417
                         35       1    1fxyz             2.618370      49.724436
                         35       1    1fxz2             2.618370      28.708417
                         35       1    1fy3              2.618370      12.838794
                         35       1    1fy2z             2.618370      28.708417
                         35       1    1fyz2             2.618370      28.708417
                         35       1    1fz3              2.618370      12.838794

                         36       1    1fx3              1.098120       1.817258
                         36       1    1fx2y             1.098120       4.063512
                         36       1    1fx2z             1.098120       4.063512
                         36       1    1fxy2             1.098120       4.063512
                         36       1    1fxyz             1.098120       7.038209
                         36       1    1fxz2             1.098120       4.063512
                         36       1    1fy3              1.098120       1.817258
                         36       1    1fy2z             1.098120       4.063512
                         36       1    1fyz2             1.098120       4.063512
                         36       1    1fz3              1.098120       1.817258

                         37       1    1fx3              0.642233       0.543579
                         37       1    1fx2y             0.642233       1.215480
                         37       1    1fx2z             0.642233       1.215480
                         37       1    1fxy2             0.642233       1.215480
                         37       1    1fxyz             0.642233       2.105273
                         37       1    1fxz2             0.642233       1.215480
                         37       1    1fy3              0.642233       0.543579
                         37       1    1fy2z             0.642233       1.215480
                         37       1    1fyz2             0.642233       1.215480
                         37       1    1fz3              0.642233       0.543579

                         38       1    1fx3              0.420735       0.209881
                         38       1    1fx2y             0.420735       0.469309
                         38       1    1fx2z             0.420735       0.469309
                         38       1    1fxy2             0.420735       0.469309
                         38       1    1fxyz             0.420735       0.812867
                         38       1    1fxz2             0.420735       0.469309
                         38       1    1fy3              0.420735       0.209881
                         38       1    1fy2z             0.420735       0.469309
                         38       1    1fyz2             0.420735       0.469309
                         38       1    1fz3              0.420735       0.209881

                         39       1    1fx3              0.216289       0.046966
                         39       1    1fx2y             0.216289       0.105019
                         39       1    1fx2z             0.216289       0.105019
                         39       1    1fxy2             0.216289       0.105019
                         39       1    1fxyz             0.216289       0.181898
                         39       1    1fxz2             0.216289       0.105019
                         39       1    1fy3              0.216289       0.046966
                         39       1    1fy2z             0.216289       0.105019
                         39       1    1fyz2             0.216289       0.105019
                         39       1    1fz3              0.216289       0.046966

                         40       1    1gx4              3.975880      49.530979
                         40       1    1gx3y             3.975880     131.046653
                         40       1    1gx3z             3.975880     131.046653
                         40       1    1gx2y2            3.975880     169.180501
                         40       1    1gx2yz            3.975880     293.029224
                         40       1    1gx2z2            3.975880     169.180501
                         40       1    1gxy3             3.975880     131.046653
                         40       1    1gxy2z            3.975880     293.029224
                         40       1    1gxyz2            3.975880     293.029224
                         40       1    1gxz3             3.975880     131.046653
                         40       1    1gy4              3.975880      49.530979
                         40       1    1gy3z             3.975880     131.046653
                         40       1    1gy2z2            3.975880     169.180501
                         40       1    1gyz3             3.975880     131.046653
                         40       1    1gz4              3.975880      49.530979

                         41       1    1gx4              1.780810       5.440437
                         41       1    1gx3y             1.780810      14.394043
                         41       1    1gx3z             1.780810      14.394043
                         41       1    1gx2y2            1.780810      18.582630
                         41       1    1gx2yz            1.780810      32.186059
                         41       1    1gx2z2            1.780810      18.582630
                         41       1    1gxy3             1.780810      14.394043
                         41       1    1gxy2z            1.780810      32.186059
                         41       1    1gxyz2            1.780810      32.186059
                         41       1    1gxz3             1.780810      14.394043
                         41       1    1gy4              1.780810       5.440437
                         41       1    1gy3z             1.780810      14.394043
                         41       1    1gy2z2            1.780810      18.582630
                         41       1    1gyz3             1.780810      14.394043
                         41       1    1gz4              1.780810       5.440437

                         42       1    1gx4              0.827003       0.660055
                         42       1    1gx3y             0.827003       1.746341
                         42       1    1gx3z             0.827003       1.746341
                         42       1    1gx2y2            0.827003       2.254516
                         42       1    1gx2yz            0.827003       3.904936
                         42       1    1gx2z2            0.827003       2.254516
                         42       1    1gxy3             0.827003       1.746341
                         42       1    1gxy2z            0.827003       3.904936
                         42       1    1gxyz2            0.827003       3.904936
                         42       1    1gxz3             0.827003       1.746341
                         42       1    1gy4              0.827003       0.660055
                         42       1    1gy3z             0.827003       1.746341
                         42       1    1gy2z2            0.827003       2.254516
                         42       1    1gyz3             0.827003       1.746341
                         42       1    1gz4              0.827003       0.660055

                         43       1    1gx4              0.509226       0.173956
                         43       1    1gx3y             0.509226       0.460244
                         43       1    1gx3z             0.509226       0.460244
                         43       1    1gx2y2            0.509226       0.594173
                         43       1    1gx2yz            0.509226       1.029138
                         43       1    1gx2z2            0.509226       0.594173
                         43       1    1gxy3             0.509226       0.460244
                         43       1    1gxy2z            0.509226       1.029138
                         43       1    1gxyz2            0.509226       1.029138
                         43       1    1gxz3             0.509226       0.460244
                         43       1    1gy4              0.509226       0.173956
                         43       1    1gy3z             0.509226       0.460244
                         43       1    1gy2z2            0.509226       0.594173
                         43       1    1gyz3             0.509226       0.460244
                         43       1    1gz4              0.509226       0.173956

                         44       1    1gx4              0.256173       0.026297
                         44       1    1gx3y             0.256173       0.069575
                         44       1    1gx3z             0.256173       0.069575
                         44       1    1gx2y2            0.256173       0.089821
                         44       1    1gx2yz            0.256173       0.155574
                         44       1    1gx2z2            0.256173       0.089821
                         44       1    1gxy3             0.256173       0.069575
                         44       1    1gxy2z            0.256173       0.155574
                         44       1    1gxyz2            0.256173       0.155574
                         44       1    1gxz3             0.256173       0.069575
                         44       1    1gy4              0.256173       0.026297
                         44       1    1gy3z             0.256173       0.069575
                         44       1    1gy2z2            0.256173       0.089821
                         44       1    1gyz3             0.256173       0.069575
                         44       1    1gz4              0.256173       0.026297

                         45       1    1hx5              2.361800      12.116698
                         45       1    1hx4y             2.361800      36.350095
                         45       1    1hx4z             2.361800      36.350095
                         45       1    1hx3y2            2.361800      55.525688
                         45       1    1hx3yz            2.361800      96.173313
                         45       1    1hx3z2            2.361800      55.525688
                         45       1    1hx2y3            2.361800      55.525688
                         45       1    1hx2y2z           2.361800     124.159213
                         45       1    1hx2yz2           2.361800     124.159213
                         45       1    1hx2z3            2.361800      55.525688
                         45       1    1hxy4             2.361800      36.350095
                         45       1    1hxy3z            2.361800      96.173313
                         45       1    1hxy2z2           2.361800     124.159213
                         45       1    1hxyz3            2.361800      96.173313
                         45       1    1hxz4             2.361800      36.350095
                         45       1    1hy5              2.361800      12.116698
                         45       1    1hy4z             2.361800      36.350095
                         45       1    1hy3z2            2.361800      55.525688
                         45       1    1hy2z3            2.361800      55.525688
                         45       1    1hyz4             2.361800      36.350095
                         45       1    1hz5              2.361800      12.116698

                         46       1    1hx5              0.845321       0.429699
                         46       1    1hx4y             0.845321       1.289098
                         46       1    1hx4z             0.845321       1.289098
                         46       1    1hx3y2            0.845321       1.969129
                         46       1    1hx3yz            0.845321       3.410632
                         46       1    1hx3z2            0.845321       1.969129
                         46       1    1hx2y3            0.845321       1.969129
                         46       1    1hx2y2z           0.845321       4.403107
                         46       1    1hx2yz2           0.845321       4.403107
                         46       1    1hx2z3            0.845321       1.969129
                         46       1    1hxy4             0.845321       1.289098
                         46       1    1hxy3z            0.845321       3.410632
                         46       1    1hxy2z2           0.845321       4.403107
                         46       1    1hxyz3            0.845321       3.410632
                         46       1    1hxz4             0.845321       1.289098
                         46       1    1hy5              0.845321       0.429699
                         46       1    1hy4z             0.845321       1.289098
                         46       1    1hy3z2            0.845321       1.969129
                         46       1    1hy2z3            0.845321       1.969129
                         46       1    1hyz4             0.845321       1.289098
                         46       1    1hz5              0.845321       0.429699

                         47       1    1hx5              0.484425       0.070361
                         47       1    1hx4y             0.484425       0.211082
                         47       1    1hx4z             0.484425       0.211082
                         47       1    1hx3y2            0.484425       0.322433
                         47       1    1hx3yz            0.484425       0.558471
                         47       1    1hx3z2            0.484425       0.322433
                         47       1    1hx2y3            0.484425       0.322433
                         47       1    1hx2y2z           0.484425       0.720983
                         47       1    1hx2yz2           0.484425       0.720983
                         47       1    1hx2z3            0.484425       0.322433
                         47       1    1hxy4             0.484425       0.211082
                         47       1    1hxy3z            0.484425       0.558471
                         47       1    1hxy2z2           0.484425       0.720983
                         47       1    1hxyz3            0.484425       0.558471
                         47       1    1hxz4             0.484425       0.211082
                         47       1    1hy5              0.484425       0.070361
                         47       1    1hy4z             0.484425       0.211082
                         47       1    1hy3z2            0.484425       0.322433
                         47       1    1hy2z3            0.484425       0.322433
                         47       1    1hyz4             0.484425       0.211082
                         47       1    1hz5              0.484425       0.070361

                         48       1    1ix6              0.794316       0.188648
                         48       1    1ix5y             0.794316       0.625675
                         48       1    1ix5z             0.794316       0.625675
                         48       1    1ix4y2            0.794316       1.083702
                         48       1    1ix4yz            0.794316       1.877026
                         48       1    1ix4z2            0.794316       1.083702
                         48       1    1ix3y3            0.794316       1.282253
                         48       1    1ix3y2z           0.794316       2.867205
                         48       1    1ix3yz2           0.794316       2.867205
                         48       1    1ix3z3            0.794316       1.282253
                         48       1    1ix2y4            0.794316       1.083702
                         48       1    1ix2y3z           0.794316       2.867205
                         48       1    1ix2y2z2          0.794316       3.701546
                         48       1    1ix2yz3           0.794316       2.867205
                         48       1    1ix2z4            0.794316       1.083702
                         48       1    1ixy5             0.794316       0.625675
                         48       1    1ixy4z            0.794316       1.877026
                         48       1    1ixy3z2           0.794316       2.867205
                         48       1    1ixy2z3           0.794316       2.867205
                         48       1    1ixyz4            0.794316       1.877026
                         48       1    1ixz5             0.794316       0.625675
                         48       1    1iy6              0.794316       0.188648
                         48       1    1iy5z             0.794316       0.625675
                         48       1    1iy4z2            0.794316       1.083702
                         48       1    1iy3z3            0.794316       1.282253
                         48       1    1iy2z4            0.794316       1.083702
                         48       1    1iyz5             0.794316       0.625675
                         48       1    1iz6              0.794316       0.188648

     The atoms of this atomic kind are PAW atoms (GAPW):
       Hard Gaussian function radius:                                      1.512
       Rho0 radius:                                                        1.512
       Maximum GTO radius used for PAW projector construction:            24.566

     GAPW Soft Basis Set                                          def2-QZVP_soft

       Number of orbital shell sets:                                          22
       Number of orbital shells:                                              22
       Number of primitive Cartesian functions:                               18
       Number of Cartesian basis functions:                                   86
       Number of spherical basis functions:                                   70
       Norm type:                                                              2

       Normalised Cartesian orbitals:

                        Set   Shell   Orbital            Exponent    Coefficient

                          1       1    1s         

                          2       1    1s         

                          3       1    1s         

                          4       1    1s         

                          5       1    1s                2.614652       1.465448

                          6       1    1s                1.175783       0.804740

                          7       1    1s                0.354323       0.327310

                          8       1    1s                0.162483       0.182397

                          9       1    1s                0.068332       0.095253

                         10       1    1px               2.009696       1.226385
                         10       1    1py               2.009696       1.226385
                         10       1    1pz               2.009696       1.226385

                         11       1    1px               1.907642      -3.205794
                         11       1    1py               1.907642      -3.205794
                         11       1    1pz               1.907642      -3.205794

                         12       1    1px               0.923372       1.290212
                         12       1    1py               0.923372       1.290212
                         12       1    1pz               0.923372       1.290212

                         13       1    1px               0.345157       0.377104
                         13       1    1py               0.345157       0.377104
                         13       1    1pz               0.345157       0.377104

                         14       1    1px               0.136568       0.118339
                         14       1    1py               0.136568       0.118339
                         14       1    1pz               0.136568       0.118339

                         15       1    1px               0.052987       0.036237
                         15       1    1py               0.052987       0.036237
                         15       1    1pz               0.052987       0.036237

                         16       1    1dx2              2.645000       9.029306
                         16       1    1dxy              2.645000      15.639217
                         16       1    1dxz              2.645000      15.639217
                         16       1    1dy2              2.645000       9.029306
                         16       1    1dyz              2.645000      15.639217
                         16       1    1dz2              2.645000       9.029306

                         17       1    1dx2              0.608000       0.689034
                         17       1    1dxy              0.608000       1.193442
                         17       1    1dxz              0.608000       1.193442
                         17       1    1dy2              0.608000       0.689034
                         17       1    1dyz              0.608000       1.193442
                         17       1    1dz2              0.608000       0.689034

                         18       1    1dx2              0.272000       0.168618
                         18       1    1dxy              0.272000       0.292056
                         18       1    1dxz              0.272000       0.292056
                         18       1    1dy2              0.272000       0.168618
                         18       1    1dyz              0.272000       0.292056
                         18       1    1dz2              0.272000       0.168618

                         19       1    1dx2              0.113000       0.036249
                         19       1    1dxy              0.113000       0.062785
                         19       1    1dxz              0.113000       0.062785
                         19       1    1dy2              0.113000       0.036249
                         19       1    1dyz              0.113000       0.062785
                         19       1    1dz2              0.113000       0.036249

                         20       1    1fx3              0.212000       0.044896
                         20       1    1fx2y             0.212000       0.100391
                         20       1    1fx2z             0.212000       0.100391
                         20       1    1fxy2             0.212000       0.100391
                         20       1    1fxyz             0.212000       0.173882
                         20       1    1fxz2             0.212000       0.100391
                         20       1    1fy3              0.212000       0.044896
                         20       1    1fy2z             0.212000       0.100391
                         20       1    1fyz2             0.212000       0.100391
                         20       1    1fz3              0.212000       0.044896

                         21       1    1fx3              0.541000       0.369529
                         21       1    1fx2y             0.541000       0.826292
                         21       1    1fx2z             0.541000       0.826292
                         21       1    1fxy2             0.541000       0.826292
                         21       1    1fxyz             0.541000       1.431179
                         21       1    1fxz2             0.541000       0.826292
                         21       1    1fy3              0.541000       0.369529
                         21       1    1fy2z             0.541000       0.826292
                         21       1    1fyz2             0.541000       0.826292
                         21       1    1fz3              0.541000       0.369529

                         22       1    1gx4              0.461000       0.132316
                         22       1    1gx3y             0.461000       0.350076
                         22       1    1gx3z             0.461000       0.350076
                         22       1    1gx2y2            0.461000       0.451946
                         22       1    1gx2yz            0.461000       0.782793
                         22       1    1gx2z2            0.461000       0.451946
                         22       1    1gxy3             0.461000       0.350076
                         22       1    1gxy2z            0.461000       0.782793
                         22       1    1gxyz2            0.461000       0.782793
                         22       1    1gxz3             0.461000       0.350076
                         22       1    1gy4              0.461000       0.132316
                         22       1    1gy3z             0.461000       0.350076
                         22       1    1gy2z2            0.461000       0.451946
                         22       1    1gyz3             0.461000       0.350076
                         22       1    1gz4              0.461000       0.132316

     AE Potential information for                                            ALL

       Description:                                       All-electron potential
                                          Krack, Parrinello, PCCP 2, 2105 (2000)

       Gaussian exponent of the core charge distribution:               2.582645
       Electronic configuration (s p d ...):                           6   8   0

  2. Atomic kind: H                                     Number of atoms:       4

     Orbital Basis Set                                                 def2-QZVP

       Number of orbital shell sets:                                          10
       Number of orbital shells:                                              10
       Number of primitive Cartesian functions:                               13
       Number of Cartesian basis functions:                                   35
       Number of spherical basis functions:                                   30
       Norm type:                                                              2

       Normalised Cartesian orbitals:

                        Set   Shell   Orbital            Exponent    Coefficient

                          1       1    1s              190.691690       0.195396
                                                        28.605532       0.363661
                                                         6.509594       0.612837
                                                         1.841246       0.914889

                          2       1    1s                0.598537       0.484985

                          3       1    1s                0.213976       0.224225

                          4       1    1s                0.080316       0.107526

                          5       1    1px               2.292000       4.019836
                          5       1    1py               2.292000       4.019836
                          5       1    1pz               2.292000       4.019836

                          6       1    1px               0.838000       1.142865
                          6       1    1py               0.838000       1.142865
                          6       1    1pz               0.838000       1.142865

                          7       1    1px               0.292000       0.305963
                          7       1    1py               0.292000       0.305963
                          7       1    1pz               0.292000       0.305963

                          8       1    1dx2              2.062000       5.840024
                          8       1    1dxy              2.062000      10.115218
                          8       1    1dxz              2.062000      10.115218
                          8       1    1dy2              2.062000       5.840024
                          8       1    1dyz              2.062000      10.115218
                          8       1    1dz2              2.062000       5.840024

                          9       1    1dx2              0.662000       0.799670
                          9       1    1dxy              0.662000       1.385069
                          9       1    1dxz              0.662000       1.385069
                          9       1    1dy2              0.662000       0.799670
                          9       1    1dyz              0.662000       1.385069
                          9       1    1dz2              0.662000       0.799670

                         10       1    1fx3              1.397000       3.123535
                         10       1    1fx2y             1.397000       6.984436
                         10       1    1fx2z             1.397000       6.984436
                         10       1    1fxy2             1.397000       6.984436
                         10       1    1fxyz             1.397000      12.097399
                         10       1    1fxz2             1.397000       6.984436
                         10       1    1fy3              1.397000       3.123535
                         10       1    1fy2z             1.397000       6.984436
                         10       1    1fyz2             1.397000       6.984436
                         10       1    1fz3              1.397000       3.123535

     RI Auxiliary Basis Set                                                RI-5Z

       Number of orbital shell sets:                                          21
       Number of orbital shells:                                              21
       Number of primitive Cartesian functions:                               21
       Number of Cartesian basis functions:                                  126
       Number of spherical basis functions:                                   91
       Norm type:                                                              2

       Normalised Cartesian orbitals:

                        Set   Shell   Orbital            Exponent    Coefficient

                          1       1    1s               23.321500       7.563581

                          2       1    1s                4.922970       2.355486

                          3       1    1s                1.775100       1.096042

                          4       1    1s                0.994218       0.709613

                          5       1    1s                0.506054       0.427620

                          6       1    1s                0.236911       0.242019

                          7       1    1px               5.974580      13.314483
                          7       1    1py               5.974580      13.314483
                          7       1    1pz               5.974580      13.314483

                          8       1    1px               2.052170       3.501118
                          8       1    1py               2.052170       3.501118
                          8       1    1pz               2.052170       3.501118

                          9       1    1px               1.248660       1.881462
                          9       1    1py               1.248660       1.881462
                          9       1    1pz               1.248660       1.881462

                         10       1    1px               0.805545       1.087808
                         10       1    1py               0.805545       1.087808
                         10       1    1pz               0.805545       1.087808

                         11       1    1px               0.347892       0.380843
                         11       1    1py               0.347892       0.380843
                         11       1    1pz               0.347892       0.380843

                         12       1    1dx2              3.858160      17.481346
                         12       1    1dxy              3.858160      30.278579
                         12       1    1dxz              3.858160      30.278579
                         12       1    1dy2              3.858160      17.481346
                         12       1    1dyz              3.858160      30.278579
                         12       1    1dz2              3.858160      17.481346

                         13       1    1dx2              1.710630       4.211459
                         13       1    1dxy              1.710630       7.294461
                         13       1    1dxz              1.710630       7.294461
                         13       1    1dy2              1.710630       4.211459
                         13       1    1dyz              1.710630       7.294461
                         13       1    1dz2              1.710630       4.211459

                         14       1    1dx2              0.979237       1.586584
                         14       1    1dxy              0.979237       2.748044
                         14       1    1dxz              0.979237       2.748044
                         14       1    1dy2              0.979237       1.586584
                         14       1    1dyz              0.979237       2.748044
                         14       1    1dz2              0.979237       1.586584

                         15       1    1dx2              0.625366       0.723843
                         15       1    1dxy              0.625366       1.253733
                         15       1    1dxz              0.625366       1.253733
                         15       1    1dy2              0.625366       0.723843
                         15       1    1dyz              0.625366       1.253733
                         15       1    1dz2              0.625366       0.723843

                         16       1    1fx3              3.101510      18.792914
                         16       1    1fx2y             3.101510      42.022232
                         16       1    1fx2z             3.101510      42.022232
                         16       1    1fxy2             3.101510      42.022232
                         16       1    1fxyz             3.101510      72.784641
                         16       1    1fxz2             3.101510      42.022232
                         16       1    1fy3              3.101510      18.792914
                         16       1    1fy2z             3.101510      42.022232
                         16       1    1fyz2             3.101510      42.022232
                         16       1    1fz3              3.101510      18.792914

                         17       1    1fx3              1.198110       2.210915
                         17       1    1fx2y             1.198110       4.943756
                         17       1    1fx2z             1.198110       4.943756
                         17       1    1fxy2             1.198110       4.943756
                         17       1    1fxyz             1.198110       8.562836
                         17       1    1fxz2             1.198110       4.943756
                         17       1    1fy3              1.198110       2.210915
                         17       1    1fy2z             1.198110       4.943756
                         17       1    1fyz2             1.198110       4.943756
                         17       1    1fz3              1.198110       2.210915

                         18       1    1fx3              0.572873       0.420326
                         18       1    1fx2y             0.572873       0.939876
                         18       1    1fx2z             0.572873       0.939876
                         18       1    1fxy2             0.572873       0.939876
                         18       1    1fxyz             0.572873       1.627914
                         18       1    1fxz2             0.572873       0.939876
                         18       1    1fy3              0.572873       0.420326
                         18       1    1fy2z             0.572873       0.939876
                         18       1    1fyz2             0.572873       0.939876
                         18       1    1fz3              0.572873       0.420326

                         19       1    1gx4              2.987800      22.576266
                         19       1    1gx3y             2.987800      59.731185
                         19       1    1gx3z             2.987800      59.731185
                         19       1    1gx2y2            2.987800      77.112629
                         19       1    1gx2yz            2.987800     133.562991
                         19       1    1gx2z2            2.987800      77.112629
                         19       1    1gxy3             2.987800      59.731185
                         19       1    1gxy2z            2.987800     133.562991
                         19       1    1gxyz2            2.987800     133.562991
                         19       1    1gxz3             2.987800      59.731185
                         19       1    1gy4              2.987800      22.576266
                         19       1    1gy3z             2.987800      59.731185
                         19       1    1gy2z2            2.987800      77.112629
                         19       1    1gyz3             2.987800      59.731185
                         19       1    1gz4              2.987800      22.576266

                         20       1    1gx4              1.231920       1.974865
                         20       1    1gx3y             1.231920       5.225001
                         20       1    1gx3z             1.231920       5.225001
                         20       1    1gx2y2            1.231920       6.745447
                         20       1    1gx2yz            1.231920      11.683456
                         20       1    1gx2z2            1.231920       6.745447
                         20       1    1gxy3             1.231920       5.225001
                         20       1    1gxy2z            1.231920      11.683456
                         20       1    1gxyz2            1.231920      11.683456
                         20       1    1gxz3             1.231920       5.225001
                         20       1    1gy4              1.231920       1.974865
                         20       1    1gy3z             1.231920       5.225001
                         20       1    1gy2z2            1.231920       6.745447
                         20       1    1gyz3             1.231920       5.225001
                         20       1    1gz4              1.231920       1.974865

                         21       1    1hx5              3.247390      34.106027
                         21       1    1hx4y             3.247390     102.318080
                         21       1    1hx4z             3.247390     102.318080
                         21       1    1hx3y2            3.247390     156.293448
                         21       1    1hx3yz            3.247390     270.708193
                         21       1    1hx3z2            3.247390     156.293448
                         21       1    1hx2y3            3.247390     156.293448
                         21       1    1hx2y2z           3.247390     349.482775
                         21       1    1hx2yz2           3.247390     349.482775
                         21       1    1hx2z3            3.247390     156.293448
                         21       1    1hxy4             3.247390     102.318080
                         21       1    1hxy3z            3.247390     270.708193
                         21       1    1hxy2z2           3.247390     349.482775
                         21       1    1hxyz3            3.247390     270.708193
                         21       1    1hxz4             3.247390     102.318080
                         21       1    1hy5              3.247390      34.106027
                         21       1    1hy4z             3.247390     102.318080
                         21       1    1hy3z2            3.247390     156.293448
                         21       1    1hy2z3            3.247390     156.293448
                         21       1    1hyz4             3.247390     102.318080
                         21       1    1hz5              3.247390      34.106027

     The atoms of this atomic kind are PAW atoms (GAPW):
       Hard Gaussian function radius:                                      1.200
       Rho0 radius:                                                        1.200
       Maximum GTO radius used for PAW projector construction:            24.566

     GAPW Soft Basis Set                                          def2-QZVP_soft

       Number of orbital shell sets:                                          10
       Number of orbital shells:                                              10
       Number of primitive Cartesian functions:                               10
       Number of Cartesian basis functions:                                   35
       Number of spherical basis functions:                                   30
       Norm type:                                                              2

       Normalised Cartesian orbitals:

                        Set   Shell   Orbital            Exponent    Coefficient

                          1       1    1s                1.841246       0.914889

                          2       1    1s                0.598537       0.484985

                          3       1    1s                0.213976       0.224225

                          4       1    1s                0.080316       0.107526

                          5       1    1px               2.292000       4.019836
                          5       1    1py               2.292000       4.019836
                          5       1    1pz               2.292000       4.019836

                          6       1    1px               0.838000       1.142865
                          6       1    1py               0.838000       1.142865
                          6       1    1pz               0.838000       1.142865

                          7       1    1px               0.292000       0.305963
                          7       1    1py               0.292000       0.305963
                          7       1    1pz               0.292000       0.305963

                          8       1    1dx2              2.062000       5.840024
                          8       1    1dxy              2.062000      10.115218
                          8       1    1dxz              2.062000      10.115218
                          8       1    1dy2              2.062000       5.840024
                          8       1    1dyz              2.062000      10.115218
                          8       1    1dz2              2.062000       5.840024

                          9       1    1dx2              0.662000       0.799670
                          9       1    1dxy              0.662000       1.385069
                          9       1    1dxz              0.662000       1.385069
                          9       1    1dy2              0.662000       0.799670
                          9       1    1dyz              0.662000       1.385069
                          9       1    1dz2              0.662000       0.799670

                         10       1    1fx3              1.397000       3.123535
                         10       1    1fx2y             1.397000       6.984436
                         10       1    1fx2z             1.397000       6.984436
                         10       1    1fxy2             1.397000       6.984436
                         10       1    1fxyz             1.397000      12.097399
                         10       1    1fxz2             1.397000       6.984436
                         10       1    1fy3              1.397000       3.123535
                         10       1    1fy2z             1.397000       6.984436
                         10       1    1fyz2             1.397000       6.984436
                         10       1    1fz3              1.397000       3.123535

     AE Potential information for                                            ALL

       Description:                                       All-electron potential
                                          Krack, Parrinello, PCCP 2, 2105 (2000)

       Gaussian exponent of the core charge distribution:              12.500000
       Electronic configuration (s p d ...):                           1   0   0


 MOLECULE KIND INFORMATION


 All atoms are their own molecule, skipping detailed information


 TOTAL NUMBERS AND MAXIMUM NUMBERS

  Total number of            - Atomic kinds:                                   2
[...]
    16 ( vir )      2.233     -0.876      0.000      2.913      1.000      4.271
    17 ( vir )      2.772     -1.602      0.000      4.211      1.000      5.381
    18 ( vir )      2.772     -1.602      0.000      4.211      1.000      5.381
    19 ( vir )      4.841     -2.135      0.000      4.285      1.000      6.991
   
  GW HOMO-LUMO gap (eV)                                                    14.79
  

  Total RI-RPA Time=                                                  420.045035
  RI-RPA energy  =                                             -0.62038472198697

  Total EXX Time=                                                      24.789712
  EXX energy  =                                               -21.71285805225668

 ENERGY| Total FORCE_EVAL ( QS ) energy (a.u.):             -291.868023482958506


 -------------------------------------------------------------------------------
 -                                                                             -
 -                                DBCSR STATISTICS                             -
 -                                                                             -
 -------------------------------------------------------------------------------
 COUNTER                                    TOTAL       BLAS       SMM       ACC
 flops    70 x     9 x    70                88200     100.0%      0.0%      0.0%
 flops    30 x     9 x    70               151200     100.0%      0.0%      0.0%
 flops    70 x     9 x    30               151200     100.0%      0.0%      0.0%
 flops    70 x    30 x     9               151200     100.0%      0.0%      0.0%
 flops    30 x    70 x     9               151200     100.0%      0.0%      0.0%
 flops    70 x    70 x     9               176400     100.0%      0.0%      0.0%
 flops    30 x     9 x    30               259200     100.0%      0.0%      0.0%
 flops    30 x    30 x     9               324000     100.0%      0.0%      0.0%
 flops    30 x    30 x    70               378000     100.0%      0.0%      0.0%
 flops    30 x   100 x    70               420000     100.0%      0.0%      0.0%
 flops    30 x    30 x    30               648000     100.0%      0.0%      0.0%
 flops    70 x    70 x    70               686000     100.0%      0.0%      0.0%
 flops    30 x   100 x    30               720000     100.0%      0.0%      0.0%
 flops    60 x    30 x    70               756000     100.0%      0.0%      0.0%
 flops    60 x   100 x    70               840000     100.0%      0.0%      0.0%
 flops    30 x    70 x    70              1176000     100.0%      0.0%      0.0%
 flops    70 x    70 x    30              1176000     100.0%      0.0%      0.0%
 flops   100 x    30 x    70              1260000     100.0%      0.0%      0.0%
 flops    60 x    30 x    30              1296000     100.0%      0.0%      0.0%
 flops   100 x   100 x    70              1400000     100.0%      0.0%      0.0%
 flops    60 x   100 x    30              1440000     100.0%      0.0%      0.0%
 flops    30 x    70 x    30              2016000     100.0%      0.0%      0.0%
 flops   100 x    30 x    30              2160000     100.0%      0.0%      0.0%
 flops   100 x   100 x    30              2400000     100.0%      0.0%      0.0%
 flops   230 x   230 x   230            340676000     100.0%      0.0%      0.0%
 flops   230 x    91 x   230            539156800     100.0%      0.0%      0.0%
 flops    91 x   230 x   230            539156800     100.0%      0.0%      0.0%
 flops   230 x   230 x    91            539156800     100.0%      0.0%      0.0%
 flops    91 x    30 x    70            609991200     100.0%      0.0%      0.0%
 flops    91 x   100 x    70            677768000     100.0%      0.0%      0.0%
 flops    91 x    91 x   230            853274240     100.0%      0.0%      0.0%
 flops   230 x    91 x    91            853274240     100.0%      0.0%      0.0%
 flops    91 x   230 x    91            853274240     100.0%      0.0%      0.0%
 flops    91 x    30 x   230           1002128400     100.0%      0.0%      0.0%
 flops    91 x    30 x    30           1045699200     100.0%      0.0%      0.0%
 flops    91 x   100 x   230           1113476000     100.0%      0.0%      0.0%
 flops    91 x   100 x    30           1161888000     100.0%      0.0%      0.0%
 flops   182 x    30 x    70           1219982400     100.0%      0.0%      0.0%
 flops    91 x    91 x    91           1350399232     100.0%      0.0%      0.0%
 flops   182 x   100 x    70           1355536000     100.0%      0.0%      0.0%
 flops    91 x    30 x    91           1585977120     100.0%      0.0%      0.0%
 flops    91 x   100 x    91           1762196800     100.0%      0.0%      0.0%
 flops   182 x    30 x   230           2004256800     100.0%      0.0%      0.0%
 flops   182 x    30 x    30           2091398400     100.0%      0.0%      0.0%
 flops   321 x    30 x    70           2151727200     100.0%      0.0%      0.0%
 flops   182 x   100 x   230           2226952000     100.0%      0.0%      0.0%
 flops   182 x   100 x    30           2323776000     100.0%      0.0%      0.0%
 flops   321 x   100 x    70           2390808000     100.0%      0.0%      0.0%
 flops    70 x  1680 x    70           2864736000     100.0%      0.0%      0.0%
 flops   182 x    30 x    91           3171954240     100.0%      0.0%      0.0%
 flops   182 x   100 x    91           3524393600     100.0%      0.0%      0.0%
 flops   321 x    30 x   230           3534980400     100.0%      0.0%      0.0%
 flops   321 x    30 x    30           3688675200     100.0%      0.0%      0.0%
 flops   321 x   100 x   230           3927756000     100.0%      0.0%      0.0%
 flops   321 x   100 x    30           4098528000     100.0%      0.0%      0.0%
 flops    30 x  1680 x    70           4741632000     100.0%      0.0%      0.0%
 flops    70 x   720 x    70           4910976000     100.0%      0.0%      0.0%
 flops    70 x  1680 x    30           4910976000     100.0%      0.0%      0.0%
 flops   321 x    30 x    91           5594490720     100.0%      0.0%      0.0%
 flops   321 x   100 x    91           6216100800     100.0%      0.0%      0.0%
 flops    30 x   720 x    70           8128512000     100.0%      0.0%      0.0%
 flops    30 x  1680 x    30           8128512000     100.0%      0.0%      0.0%
 flops    70 x   720 x    30           8418816000     100.0%      0.0%      0.0%
 flops   230 x   230 x  1457           8632433600     100.0%      0.0%      0.0%
 flops   230 x   230 x  1488           8816102400     100.0%      0.0%      0.0%
 flops    70 x  1750 x    70           8952300000     100.0%      0.0%      0.0%
 flops   230 x    91 x  1457          13661764480     100.0%      0.0%      0.0%
 flops    91 x   230 x  1457          13661764480     100.0%      0.0%      0.0%
 flops    30 x   720 x    30          13934592000     100.0%      0.0%      0.0%
 flops   230 x    91 x  1488          13952440320     100.0%      0.0%      0.0%
 flops    91 x   230 x  1488          13952440320     100.0%      0.0%      0.0%
 flops    30 x  1750 x    70          14817600000     100.0%      0.0%      0.0%
 flops    70 x   750 x    70          15346800000     100.0%      0.0%      0.0%
 flops    70 x  1750 x    30          15346800000     100.0%      0.0%      0.0%
 flops   230 x   230 x  1504          17821798400     100.0%      0.0%      0.0%
 flops   230 x   230 x  1536          18200985600     100.0%      0.0%      0.0%
 flops    91 x    91 x  1457          21621227264     100.0%      0.0%      0.0%
 flops    91 x    91 x  1488          22081253376     100.0%      0.0%      0.0%
 flops    30 x   750 x    70          25401600000     100.0%      0.0%      0.0%
 flops    30 x  1750 x    30          25401600000     100.0%      0.0%      0.0%
 flops    70 x   750 x    30          26308800000     100.0%      0.0%      0.0%
 flops   230 x    91 x  1504          28204933120     100.0%      0.0%      0.0%
 flops    91 x   230 x  1504          28204933120     100.0%      0.0%      0.0%
 flops   230 x    91 x  1536          28805038080     100.0%      0.0%      0.0%
 flops    91 x   230 x  1536          28805038080     100.0%      0.0%      0.0%
 flops    30 x   750 x    30          43545600000     100.0%      0.0%      0.0%
 flops    91 x    91 x  1504          44637372416     100.0%      0.0%      0.0%
 flops    91 x    91 x  1536          45587103744     100.0%      0.0%      0.0%
 flops inhomo. stacks                           0       0.0%      0.0%      0.0%
 flops total                       652.175514E+09     100.0%      0.0%      0.0%
 flops max/rank                     43.257778E+09     100.0%      0.0%      0.0%
 matmuls inhomo. stacks                         0       0.0%      0.0%      0.0%
 matmuls total                             142770     100.0%      0.0%      0.0%
 number of processed stacks                 56224     100.0%      0.0%      0.0%
 average stack size                                     2.5       0.0       0.0
 marketing flops                   657.320968E+09
 -------------------------------------------------------------------------------
 # multiplications                            860
 max memory usage/rank             683.417600E+06
 # max total images/rank                        3
 # max 3D layers                                1
 # MPI messages exchanged                  372552
 MPI messages size (bytes):
  total size                         7.659291E+09
  min size                           0.000000E+00
  max size                         590.640000E+03
  average size                      20.558984E+03
 MPI breakdown and total messages size (bytes):
             size <=      128              262563                        0
       128 < size <=     8192               19317                138845520
      8192 < size <=    32768               31556                678368640
     32768 < size <=   131072               39922               2551031392
    131072 < size <=  4194304               19194               4290931904
   4194304 < size <= 16777216                   0                        0
  16777216 < size                               0                        0
 -------------------------------------------------------------------------------

 *** WARNING in dbcsr_mm.F:278 :: Using a non-square number of MPI ranks ***
 *** might lead to poor performance. Used ranks: 24 Suggested: 25 49     ***

 -------------------------------------------------------------------------------
 -                                                                             -
 -                      DBCSR MESSAGE PASSING PERFORMANCE                      -
 -                                                                             -
 -------------------------------------------------------------------------------

 ROUTINE             CALLS      AVE VOLUME [Bytes]
 MP_Group               26
 MP_Bcast               89                     12.
 MP_Allreduce         5011                      9.
 MP_Alltoall          2512                  38680.
 MP_Wait             46784
 MP_ISend            34516                  26702.
 MP_IRecv            34546                  12486.
 MP_Memory           66246
 -------------------------------------------------------------------------------


 MEMORY| Estimated peak process memory [MiB]                                 652

 -------------------------------------------------------------------------------
 ----                             MULTIGRID INFO                            ----
 -------------------------------------------------------------------------------
 count for grid        1:         228350          cutoff [a.u.]          200.00
 count for grid        2:          37413          cutoff [a.u.]           66.67
 count for grid        3:          21811          cutoff [a.u.]           22.22
 count for grid        4:           6232          cutoff [a.u.]            7.41
 total gridlevel count  :         293806

 -------------------------------------------------------------------------------
 -                                                                             -
 -                         MESSAGE PASSING PERFORMANCE                         -
 -                                                                             -
 -------------------------------------------------------------------------------

 ROUTINE             CALLS      AVE VOLUME [Bytes]
 MP_Group                5
 MP_Bcast              192                2828629.
 MP_Allreduce          359                  34648.
 MP_Sync                72
 MP_Alltoall           123                3778454.
 MP_ISendRecv          276                  60709.
 MP_Wait               940
 MP_comm_split          10
 MP_ISend             3502                 129682.
 MP_IRecv             3152                 209959.
 MP_Recv                 4                   3040.
 -------------------------------------------------------------------------------


 -------------------------------------------------------------------------------
 -                                                                             -
 -                           R E F E R E N C E S                               -
 -                                                                             -
 -------------------------------------------------------------------------------
 
 CP2K version 7.0 (Development Version), the CP2K developers group (2018).
 CP2K is freely available from https://www.cp2k.org/ .

 Schuett, Ole; Messmer, Peter; Hutter, Juerg; VandeVondele, Joost. 
 Electronic Structure Calculations on Graphics Processing Units, John Wiley & Sons, Ltd, 173-190 (2016). 
 GPU-Accelerated Sparse Matrix-Matrix Multiplication for Linear Scaling Density Functional Theory.
 https://dx.doi.org/10.1002/9781118670712.ch8


 Del Ben, M; Schuett, O; Wentz, T; Messmer, P; Hutter, J;
 VandeVondele, J. 
 COMPUTER PHYSICS COMMUNICATIONS, 187, 120-129 (2015). 
 Enabling simulation at the fifth rung of DFT: Large scale RPA
 calculations with excellent time to solution.
 https://dx.doi.org/10.1016/j.cpc.2014.10.021


 Borstnik, U; VandeVondele, J; Weber, V; Hutter, J. 
 PARALLEL COMPUTING, 40 (5-6), 47-58 (2014). 
 Sparse matrix multiplication: The distributed block-compressed sparse
 row library.
 https://dx.doi.org/10.1016/j.parco.2014.03.012


 Hutter, J; Iannuzzi, M; Schiffmann, F; VandeVondele, J. 
 WILEY INTERDISCIPLINARY REVIEWS-COMPUTATIONAL MOLECULAR SCIENCE, 4 (1), 15-25 (2014). 
 CP2K: atomistic simulations of condensed matter systems.
 https://dx.doi.org/10.1002/wcms.1159


 Del Ben, M; Hutter, J; VandeVondele, J. 
 JOURNAL OF CHEMICAL THEORY AND COMPUTATION, 9 (6), 2654-2671 (2013). 
 Electron Correlation in the Condensed Phase from a Resolution of
 Identity Approach Based on the Gaussian and Plane Waves Scheme.
 https://dx.doi.org/10.1021/ct4002202


 Del Ben, M; Hutter, J; VandeVondele, J. 
 JOURNAL OF CHEMICAL THEORY AND COMPUTATION, 8 (11), 4177-4188 (2012). 
 Second-Order Moller-Plesset Perturbation Theory in the Condensed Phase:
 An Efficient and Massively Parallel Gaussian and Plane Waves Approach.
 https://dx.doi.org/10.1021/ct300531w


 Guidon, M; Hutter, J; VandeVondele, J. 
 JOURNAL OF CHEMICAL THEORY AND COMPUTATION, 5 (11), 3010-3021 (2009). 
 Robust Periodic Hartree-Fock Exchange for Large-Scale Simulations Using
 Gaussian Basis Sets.
 https://dx.doi.org/10.1021/ct900494g


 Guidon, M; Schiffmann, F; Hutter, J; VandeVondele, J. 
 JOURNAL OF CHEMICAL PHYSICS, 128 (21), 214104 (2008). 
 Ab initio molecular dynamics using hybrid density functionals.
 https://dx.doi.org/10.1063/1.2931945


 Frigo, M; Johnson, SG. 
 PROCEEDINGS OF THE IEEE, 93 (2), 216-231 (2005). 
 The design and implementation of FFTW3.
 https://dx.doi.org/10.1109/JPROC.2004.840301


 Lippert, G; Hutter, J; Parrinello, M. 
 THEORETICAL CHEMISTRY ACCOUNTS, 103 (2), 124-140 (1999). 
 The Gaussian and augmented-plane-wave density functional method for ab
 initio molecular dynamics simulations.
 https://dx.doi.org/10.1007/s002140050523


 Krack, M; Parrinello, M. 
 PHYSICAL CHEMISTRY CHEMICAL PHYSICS, 2 (10), 2105-2112 (2000). 
 All-electron ab-initio molecular dynamics.
 https://dx.doi.org/10.1039/b001167n


 Martyna, GJ; Tuckerman, ME. 
 JOURNAL OF CHEMICAL PHYSICS, 110 (6), 2810-2821 (1999). 
 A reciprocal space based method for treating long range interactions in
 ab initio and force-field-based calculations in clusters.
 https://dx.doi.org/10.1063/1.477923


 Perdew, JP; Burke, K; Ernzerhof, M. 
 PHYSICAL REVIEW LETTERS, 77 (18), 3865-3868 (1996). 
 Generalized gradient approximation made simple.
 https://dx.doi.org/10.1103/PhysRevLett.77.3865


 -------------------------------------------------------------------------------
 -                                                                             -
 -                                T I M I N G                                  -
 -                                                                             -
 -------------------------------------------------------------------------------
 SUBROUTINE                       CALLS  ASD         SELF TIME        TOTAL TIME
                                MAXIMUM       AVERAGE  MAXIMUM  AVERAGE  MAXIMUM
 CP2K                                 1  1.0    0.011    0.015  450.532  450.533
 qs_energies                          1  2.0    0.000    0.000  449.162  449.164
 mp2_main                             1  3.0    0.000    0.001  444.868  444.874
 mp2_gpw_main                         1  4.0    0.000    0.001  420.045  420.047
 rpa_ri_compute_en                    1  5.0    0.000    0.000  348.625  348.627
 rpa_num_int                          1  6.0    0.001    0.004  348.621  348.623
 mp_sum_dm                           38  7.5   99.719  184.413   99.719  184.413
 get_l_sq_wghts_sin_tf_t_to_w         2  7.0  107.996  161.109  161.137  161.143
 get_l_sq_wghts_cos_tf_t_to_w         2  7.0   98.885  144.307  144.419  144.425
 mp2_ri_gpw_compute_in                1  5.0    0.000    0.000   41.432   71.409
 compute_low_sc_3c_integrals          1  6.0   13.803   23.833   39.634   69.604
 mp_comm_split_direct                 8  6.6   30.850   49.187   30.850   49.187
 create_dbcsr_matrices_im_time        1  5.0    0.002    0.003   29.984   48.279
 compute_low_sc_3c_integrals_pu   96100  7.0   25.310   45.780   25.310   45.780
 dbcsr_multiply_generic             860  9.9    0.072    0.099   24.309   32.305
 multiply_cannon                    860 10.9    0.188    0.260   19.581   28.312
 compute_mat_P_omega                  1  7.0    0.001    0.001   26.875   26.878
 mp_sync                             72  8.7   15.579   25.556   15.579   25.556
 compute_vec_Sigma_x_minus_vxc_       1  4.0    0.000    0.000   24.790   24.790
 multiply_cannon_multrec           9847 11.9   13.247   23.547   14.110   23.731
 integrate_four_center                1  5.0    0.003    0.009   23.609   23.610
 compute_mat_P_omega_calc_P          14  8.0    0.001    0.001   18.003   18.144
 GW_postprocessing                    1  7.0    0.000    0.000   11.415   11.415
 compute_self_energy_im_time_gw       1  8.0    0.006    0.009   11.405   11.406
 calc_screening_functions             1  6.0    4.413    5.716    7.557    9.772
 -------------------------------------------------------------------------------

 The number of warnings for this run is : 1
 
 -------------------------------------------------------------------------------
  **** **** ******  **  PROGRAM ENDED AT                 2019-06-08 10:40:41.692
 ***** ** ***  *** **   PROGRAM RAN ON                                    tcopt4
 **    ****   ******    PROGRAM RAN BY                                   wilhelm
 ***** **    ** ** **   PROGRAM PROCESS ID                                140548
  **** **  *******  **  PROGRAM STOPPED IN /data/wilhelm/2_job_test/11_GW100/3_c
                                           alcs/39_SiH4
