 DBCSR| CPU Multiplication driver                                           BLAS
 DBCSR| Multrec recursion limit                                              512
 DBCSR| Multiplication stack size                                           1000
 DBCSR| Maximum elements for images                                    UNLIMITED
 DBCSR| Multiplicative factor virtual images                                   1
 DBCSR| Use multiplication densification                                       T
 DBCSR| Multiplication size stacks                                             3
 DBCSR| Number of 3D layers                                               SINGLE
 DBCSR| Use MPI memory allocation                                              T
 DBCSR| Use RMA algorithm                                                      F
 DBCSR| Use Communication thread                                               T
 DBCSR| Communication thread load                                             87


  **** **** ******  **  PROGRAM STARTED AT               2019-05-31 08:57:34.264
 ***** ** ***  *** **   PROGRAM STARTED ON                                tcopt4
 **    ****   ******    PROGRAM STARTED BY                               wilhelm
 ***** **    ** ** **   PROGRAM PROCESS ID                                 23776
  **** **  *******  **  PROGRAM STARTED IN /data/wilhelm/2_job_test/11_GW100/3_c
                                           alcs/25_C2H2

 CP2K| version string:                    CP2K version 7.0 (Development Version)
 CP2K| source code revision number:                                  git:026fb12
 CP2K| cp2kflags: libint fftw3 libxc pexsi elpa=201705 parallel mpi3 scalapack q
 CP2K|            uip libderiv_max_am1=5 libint_max_am=6
 CP2K| is freely available from                            https://www.cp2k.org/
 CP2K| Program compiled at                         Sat May 11 13:15:02 CEST 2019
 CP2K| Program compiled on                                                tcopt4
 CP2K| Program compiled for                            local_valgrind_March_2019
 CP2K| Data directory path              /data/wilhelm/1_git_repository/cp2k/data
 CP2K| Input file name                                                    GW.inp

 GLOBAL| Force Environment number                                              1
 GLOBAL| Basis set file name                              BASIS_def2_QZVP_RI_ALL
 GLOBAL| Potential file name                                           POTENTIAL
 GLOBAL| MM Potential file name                                     MM_POTENTIAL
 GLOBAL| Coordinate file name                                        25_C2H2.xyz
 GLOBAL| Method name                                                        CP2K
 GLOBAL| Project name                                                   ALL_ELEC
 GLOBAL| Preferred FFT library                                             FFTW3
 GLOBAL| Preferred diagonalization lib.                                       SL
 GLOBAL| Run type                                                         ENERGY
 GLOBAL| All-to-all communication in single precision                          F
 GLOBAL| FFTs using library dependent lengths                                  F
 GLOBAL| Global print level                                               MEDIUM
 GLOBAL| MPI I/O enabled                                                       T
 GLOBAL| Total number of message passing processes                            24
 GLOBAL| Number of threads for this process                                    1
 GLOBAL| This output is from process                                           0
 GLOBAL| CPU model name :  Intel(R) Xeon(R) CPU E5-2697 v3 @ 2.60GHz

 MEMORY| system memory details [Kb]
 MEMORY|                        rank 0           min           max       average
 MEMORY| MemTotal            396954008     396954008     396954008     396954008
 MEMORY| MemFree             185097636     185097636     185097636     185097636
 MEMORY| Buffers                270468        270468        270468        270468
 MEMORY| Cached               14479760      14479760      14479760      14479760
 MEMORY| Slab                   548316        548316        548316        548316
 MEMORY| SReclaimable           410940        410940        410940        410940
 MEMORY| MemLikelyFree       200258804     200258804     200258804     200258804


 *** Fundamental physical constants (SI units) ***

 *** Literature: B. J. Mohr and B. N. Taylor,
 ***             CODATA recommended values of the fundamental physical
 ***             constants: 2006, Web Version 5.1
 ***             http://physics.nist.gov/constants

 Speed of light in vacuum [m/s]                             2.99792458000000E+08
 Magnetic constant or permeability of vacuum [N/A**2]       1.25663706143592E-06
 Electric constant or permittivity of vacuum [F/m]          8.85418781762039E-12
 Planck constant (h) [J*s]                                  6.62606896000000E-34
 Planck constant (h-bar) [J*s]                              1.05457162825177E-34
 Elementary charge [C]                                      1.60217648700000E-19
 Electron mass [kg]                                         9.10938215000000E-31
 Electron g factor [ ]                                     -2.00231930436220E+00
 Proton mass [kg]                                           1.67262163700000E-27
 Fine-structure constant                                    7.29735253760000E-03
 Rydberg constant [1/m]                                     1.09737315685270E+07
 Avogadro constant [1/mol]                                  6.02214179000000E+23
 Boltzmann constant [J/K]                                   1.38065040000000E-23
 Atomic mass unit [kg]                                      1.66053878200000E-27
 Bohr radius [m]                                            5.29177208590000E-11

 *** Conversion factors ***

 [u] -> [a.u.]                                              1.82288848426455E+03
 [Angstrom] -> [Bohr] = [a.u.]                              1.88972613288564E+00
 [a.u.] = [Bohr] -> [Angstrom]                              5.29177208590000E-01
 [a.u.] -> [s]                                              2.41888432650478E-17
 [a.u.] -> [fs]                                             2.41888432650478E-02
 [a.u.] -> [J]                                              4.35974393937059E-18
 [a.u.] -> [N]                                              8.23872205491840E-08
 [a.u.] -> [K]                                              3.15774647902944E+05
 [a.u.] -> [kJ/mol]                                         2.62549961709828E+03
 [a.u.] -> [kcal/mol]                                       6.27509468713739E+02
 [a.u.] -> [Pa]                                             2.94210107994716E+13
 [a.u.] -> [bar]                                            2.94210107994716E+08
 [a.u.] -> [atm]                                            2.90362800883016E+08
 [a.u.] -> [eV]                                             2.72113838565563E+01
 [a.u.] -> [Hz]                                             6.57968392072181E+15
 [a.u.] -> [1/cm] (wave numbers)                            2.19474631370540E+05
 [a.u./Bohr**2] -> [1/cm]                                   5.14048714338585E+03
 

 CELL_TOP| Volume [angstrom^3]:                                         4096.000
 CELL_TOP| Vector a [angstrom    16.000     0.000     0.000    |a| =      16.000
 CELL_TOP| Vector b [angstrom     0.000    16.000     0.000    |b| =      16.000
 CELL_TOP| Vector c [angstrom     0.000     0.000    16.000    |c| =      16.000
 CELL_TOP| Angle (b,c), alpha [degree]:                                   90.000
 CELL_TOP| Angle (a,c), beta  [degree]:                                   90.000
 CELL_TOP| Angle (a,b), gamma [degree]:                                   90.000
 CELL_TOP| Numerically orthorhombic:                                         YES

 GENERATE|  Preliminary Number of Bonds generated:                             0
 GENERATE|  Achieved consistency in connectivity generation.

 CELL| Volume [angstrom^3]:                                             4096.000
 CELL| Vector a [angstrom]:      16.000     0.000     0.000    |a| =      16.000
 CELL| Vector b [angstrom]:       0.000    16.000     0.000    |b| =      16.000
 CELL| Vector c [angstrom]:       0.000     0.000    16.000    |c| =      16.000
 CELL| Angle (b,c), alpha [degree]:                                       90.000
 CELL| Angle (a,c), beta  [degree]:                                       90.000
 CELL| Angle (a,b), gamma [degree]:                                       90.000
 CELL| Numerically orthorhombic:                                             YES

 CELL_REF| Volume [angstrom^3]:                                         4096.000
 CELL_REF| Vector a [angstrom    16.000     0.000     0.000    |a| =      16.000
 CELL_REF| Vector b [angstrom     0.000    16.000     0.000    |b| =      16.000
 CELL_REF| Vector c [angstrom     0.000     0.000    16.000    |c| =      16.000
 CELL_REF| Angle (b,c), alpha [degree]:                                   90.000
 CELL_REF| Angle (a,c), beta  [degree]:                                   90.000
 CELL_REF| Angle (a,b), gamma [degree]:                                   90.000
 CELL_REF| Numerically orthorhombic:                                         YES

 *******************************************************************************
 *******************************************************************************
 **                                                                           **
 **     #####                         ##              ##                      **
 **    ##   ##            ##          ##              ##                      **
 **   ##     ##                       ##            ######                    **
 **   ##     ##  ##   ##  ##   #####  ##  ##   ####   ##    #####    #####    **
 **   ##     ##  ##   ##  ##  ##      ## ##   ##      ##   ##   ##  ##   ##   **
 **   ##  ## ##  ##   ##  ##  ##      ####     ###    ##   ######   ######    **
 **    ##  ###   ##   ##  ##  ##      ## ##      ##   ##   ##       ##        **
 **     #######   #####   ##   #####  ##  ##  ####    ##    #####   ##        **
 **           ##                                                    ##        **
 **                                                                           **
 **                                                ... make the atoms dance   **
 **                                                                           **
 **            Copyright (C) by CP2K developers group (2000 - 2019)           **
 **                                                                           **
 *******************************************************************************

 DFT| Spin restricted Kohn-Sham (RKS) calculation                            RKS
 DFT| Multiplicity                                                             1
 DFT| Number of spin states                                                    1
 DFT| Charge                                                                   0
 DFT| Self-interaction correction (SIC)                                       NO
 DFT| Cutoffs: density                                              1.000000E-10
 DFT|          gradient                                             1.000000E-10
 DFT|          tau                                                  1.000000E-10
 DFT|          cutoff_smoothing_range                               0.000000E+00
 DFT| XC density smoothing                                                  NONE
 DFT| XC derivatives                                                          PW
 FUNCTIONAL| ROUTINE=NEW
 FUNCTIONAL| PBE:
 FUNCTIONAL| J.P.Perdew, K.Burke, M.Ernzerhof, Phys. Rev. Letter, vol. 77, n 18,
 FUNCTIONAL|  pp. 3865-3868, (1996){spin unpolarized}                           

 QS| Method:                                                                GAPW
 QS| Density plane wave grid type                        NON-SPHERICAL FULLSPACE
 QS| Number of grid levels:                                                    4
 QS| Density cutoff [a.u.]:                                                200.0
 QS| Multi grid cutoff [a.u.]: 1) grid level                               200.0
 QS|                           2) grid level                                66.7
 QS|                           3) grid level                                22.2
 QS|                           4) grid level                                 7.4
 QS| Grid level progression factor:                                          3.0
 QS| Relative density cutoff [a.u.]:                                        25.0
 QS| Consistent realspace mapping and integration 
 QS| Interaction thresholds: eps_pgf_orb:                                1.0E-05
 QS|                         eps_filter_matrix:                          0.0E+00
 QS|                         eps_core_charge:                            1.0E-12
 QS|                         eps_rho_gspace:                             1.0E-10
 QS|                         eps_rho_rspace:                             1.0E-10
 QS|                         eps_gvg_rspace:                             1.0E-05
 QS|                         eps_ppl:                                    1.0E-02
 QS|                         eps_ppnl:                                   1.0E-07
 QS| GAPW|                   eps_fit:                                    1.0E-04
 QS| GAPW|                   eps_iso:                                    1.0E-12
 QS| GAPW|                   eps_svd:                                    1.0E-08
 QS| GAPW|                   eps_cpc:                                    1.0E-10
 QS| GAPW|   atom-r-grid: quadrature:                 GC_LOG                        
 QS| GAPW|      atom-s-grid:  max l :                                          8
 QS| GAPW|      max_l_rho0 :                                                   2


 ATOMIC KIND INFORMATION

  1. Atomic kind: C                                     Number of atoms:       2

     Orbital Basis Set                                                 def2-QZVP

       Number of orbital shell sets:                                          17
       Number of orbital shells:                                              17
       Number of primitive Cartesian functions:                               29
       Number of Cartesian basis functions:                                   72
       Number of spherical basis functions:                                   57
       Norm type:                                                              2

       Normalised Cartesian orbitals:

                        Set   Shell   Orbital            Exponent    Coefficient

                          1       1    1s            67025.071029       0.210754
                                                     10039.986538       0.394420
                                                      2284.931691       0.681489
                                                       647.141221       1.107503
                                                       211.094723       1.690216
                                                        76.177644       2.371646
                                                        29.633839       2.879905
                                                        12.187785       2.751196

                          2       1    1s               53.026006       1.279547
                                                        15.258503       5.110319

                          3       1    1s                5.240396       2.468500

                          4       1    1s                2.290502       1.326961

                          5       1    1s                0.696733       0.543513

                          6       1    1s                0.275993       0.271384

                          7       1    1s                0.107399       0.133709

                          8       1    1px             105.125551       1.197879
                                                        24.884461       1.548521
                                                         7.863723       1.667474
                                                         2.840700       1.549652
                                                         1.122714       1.157594
                          8       1    1py             105.125551       1.197879
                                                        24.884461       1.548521
                                                         7.863723       1.667474
                                                         2.840700       1.549652
                                                         1.122714       1.157594
                          8       1    1pz             105.125551       1.197879
                                                        24.884461       1.548521
                                                         7.863723       1.667474
                                                         2.840700       1.549652
                                                         1.122714       1.157594

                          9       1    1px               0.460507       0.540736
                          9       1    1py               0.460507       0.540736
                          9       1    1pz               0.460507       0.540736

                         10       1    1px               0.189375       0.178071
                         10       1    1py               0.189375       0.178071
                         10       1    1pz               0.189375       0.178071

                         11       1    1px               0.075984       0.056865
                         11       1    1py               0.075984       0.056865
                         11       1    1pz               0.075984       0.056865

                         12       1    1dx2              1.848000       4.821009
                         12       1    1dxy              1.848000       8.350232
                         12       1    1dxz              1.848000       8.350232
                         12       1    1dy2              1.848000       4.821009
                         12       1    1dyz              1.848000       8.350232
                         12       1    1dz2              1.848000       4.821009

                         13       1    1dx2              0.649000       0.772392
                         13       1    1dxy              0.649000       1.337822
                         13       1    1dxz              0.649000       1.337822
                         13       1    1dy2              0.649000       0.772392
                         13       1    1dyz              0.649000       1.337822
                         13       1    1dz2              0.649000       0.772392

                         14       1    1dx2              0.228000       0.123821
                         14       1    1dxy              0.228000       0.214465
                         14       1    1dxz              0.228000       0.214465
                         14       1    1dy2              0.228000       0.123821
                         14       1    1dyz              0.228000       0.214465
                         14       1    1dz2              0.228000       0.123821

                         15       1    1fx3              1.419000       3.235302
                         15       1    1fx2y             1.419000       7.234355
                         15       1    1fx2z             1.419000       7.234355
                         15       1    1fxy2             1.419000       7.234355
                         15       1    1fxyz             1.419000      12.530271
                         15       1    1fxz2             1.419000       7.234355
                         15       1    1fy3              1.419000       3.235302
                         15       1    1fy2z             1.419000       7.234355
                         15       1    1fyz2             1.419000       7.234355
                         15       1    1fz3              1.419000       3.235302

                         16       1    1fx3              0.485000       0.288984
                         16       1    1fx2y             0.485000       0.646187
                         16       1    1fx2z             0.485000       0.646187
                         16       1    1fxy2             0.485000       0.646187
                         16       1    1fxyz             0.485000       1.119229
                         16       1    1fxz2             0.485000       0.646187
                         16       1    1fy3              0.485000       0.288984
                         16       1    1fy2z             0.485000       0.646187
                         16       1    1fyz2             0.485000       0.646187
                         16       1    1fz3              0.485000       0.288984

                         17       1    1gx4              1.011000       1.146835
                         17       1    1gx3y             1.011000       3.034241
                         17       1    1gx3z             1.011000       3.034241
                         17       1    1gx2y2            1.011000       3.917189
                         17       1    1gx2yz            1.011000       6.784770
                         17       1    1gx2z2            1.011000       3.917189
                         17       1    1gxy3             1.011000       3.034241
                         17       1    1gxy2z            1.011000       6.784770
                         17       1    1gxyz2            1.011000       6.784770
                         17       1    1gxz3             1.011000       3.034241
                         17       1    1gy4              1.011000       1.146835
                         17       1    1gy3z             1.011000       3.034241
                         17       1    1gy2z2            1.011000       3.917189
                         17       1    1gyz3             1.011000       3.034241
                         17       1    1gz4              1.011000       1.146835

     RI Auxiliary Basis Set                                                RI-5Z

       Number of orbital shell sets:                                          39
       Number of orbital shells:                                              39
       Number of primitive Cartesian functions:                               39
       Number of Cartesian basis functions:                                  287
       Number of spherical basis functions:                                  193
       Norm type:                                                              2

       Normalised Cartesian orbitals:

                        Set   Shell   Orbital            Exponent    Coefficient

                          1       1    1s              247.064000      44.413724

                          2       1    1s               53.400400      14.078892

                          3       1    1s               13.932000       5.139492

                          4       1    1s                6.151790       2.783949

                          5       1    1s                2.838270       1.558477

                          6       1    1s                1.697980       1.060131

                          7       1    1s                0.944763       0.682971

                          8       1    1s                0.555806       0.458778

                          9       1    1s                0.257433       0.257578

                         10       1    1s                0.118498       0.143944

                         11       1    1px              51.517500     196.735876
                         11       1    1py              51.517500     196.735876
                         11       1    1pz              51.517500     196.735876

                         12       1    1px              14.097200      38.936433
                         12       1    1py              14.097200      38.936433
                         12       1    1pz              14.097200      38.936433

                         13       1    1px               5.053190      10.799338
                         13       1    1py               5.053190      10.799338
                         13       1    1pz               5.053190      10.799338

                         14       1    1px               2.540790       4.572472
                         14       1    1py               2.540790       4.572472
                         14       1    1pz               2.540790       4.572472

                         15       1    1px               1.420590       2.210681
                         15       1    1py               1.420590       2.210681
                         15       1    1pz               1.420590       2.210681

                         16       1    1px               0.705145       0.921060
                         16       1    1py               0.705145       0.921060
                         16       1    1pz               0.705145       0.921060

                         17       1    1px               0.353612       0.388686
                         17       1    1py               0.353612       0.388686
                         17       1    1pz               0.353612       0.388686

                         18       1    1px               0.223793       0.219406
                         18       1    1py               0.223793       0.219406
                         18       1    1pz               0.223793       0.219406

                         19       1    1dx2             12.844800     143.443975
                         19       1    1dxy             12.844800     248.452253
                         19       1    1dxz             12.844800     248.452253
                         19       1    1dy2             12.844800     143.443975
                         19       1    1dyz             12.844800     248.452253
                         19       1    1dz2             12.844800     143.443975

                         20       1    1dx2              4.999910      27.516506
                         20       1    1dxy              4.999910      47.659986
                         20       1    1dxz              4.999910      47.659986
                         20       1    1dy2              4.999910      27.516506
                         20       1    1dyz              4.999910      47.659986
                         20       1    1dz2              4.999910      27.516506

                         21       1    1dx2              3.000150      11.256663
                         21       1    1dxy              3.000150      19.497112
                         21       1    1dxz              3.000150      19.497112
                         21       1    1dy2              3.000150      11.256663
                         21       1    1dyz              3.000150      19.497112
                         21       1    1dz2              3.000150      11.256663

                         22       1    1dx2              1.639980       3.911803
                         22       1    1dxy              1.639980       6.775441
                         22       1    1dxz              1.639980       6.775441
                         22       1    1dy2              1.639980       3.911803
                         22       1    1dyz              1.639980       6.775441
                         22       1    1dz2              1.639980       3.911803

                         23       1    1dx2              0.759964       1.018116
                         23       1    1dxy              0.759964       1.763429
                         23       1    1dxz              0.759964       1.763429
                         23       1    1dy2              0.759964       1.018116
                         23       1    1dyz              0.759964       1.763429
                         23       1    1dz2              0.759964       1.018116

                         24       1    1dx2              0.413013       0.350224
                         24       1    1dxy              0.413013       0.606606
                         24       1    1dxz              0.413013       0.606606
                         24       1    1dy2              0.413013       0.350224
                         24       1    1dyz              0.413013       0.606606
                         24       1    1dz2              0.413013       0.350224

                         25       1    1dx2              0.211749       0.108792
                         25       1    1dxy              0.211749       0.188433
                         25       1    1dxz              0.211749       0.188433
                         25       1    1dy2              0.211749       0.108792
                         25       1    1dyz              0.211749       0.188433
                         25       1    1dz2              0.211749       0.108792

                         26       1    1fx3              7.559750     139.507056
                         26       1    1fx2y             7.559750     311.947262
                         26       1    1fx2z             7.559750     311.947262
                         26       1    1fxy2             7.559750     311.947262
                         26       1    1fxyz             7.559750     540.308506
                         26       1    1fxz2             7.559750     311.947262
                         26       1    1fy3              7.559750     139.507056
                         26       1    1fy2z             7.559750     311.947262
                         26       1    1fyz2             7.559750     311.947262
                         26       1    1fz3              7.559750     139.507056

                         27       1    1fx3              3.116540      18.998444
                         27       1    1fx2y             3.116540      42.481813
                         27       1    1fx2z             3.116540      42.481813
                         27       1    1fxy2             3.116540      42.481813
                         27       1    1fxyz             3.116540      73.580658
                         27       1    1fxz2             3.116540      42.481813
                         27       1    1fy3              3.116540      18.998444
                         27       1    1fy2z             3.116540      42.481813
                         27       1    1fyz2             3.116540      42.481813
                         27       1    1fz3              3.116540      18.998444

                         28       1    1fx3              2.054360       7.438351
                         28       1    1fx2y             2.054360      16.632659
                         28       1    1fx2z             2.054360      16.632659
                         28       1    1fxy2             2.054360      16.632659
                         28       1    1fxyz             2.054360      28.808611
                         28       1    1fxz2             2.054360      16.632659
                         28       1    1fy3              2.054360       7.438351
                         28       1    1fy2z             2.054360      16.632659
                         28       1    1fyz2             2.054360      16.632659
                         28       1    1fz3              2.054360       7.438351

                         29       1    1fx3              1.114180       1.877604
                         29       1    1fx2y             1.114180       4.198450
                         29       1    1fx2z             1.114180       4.198450
                         29       1    1fxy2             1.114180       4.198450
                         29       1    1fxyz             1.114180       7.271929
                         29       1    1fxz2             1.114180       4.198450
                         29       1    1fy3              1.114180       1.877604
                         29       1    1fy2z             1.114180       4.198450
                         29       1    1fyz2             1.114180       4.198450
                         29       1    1fz3              1.114180       1.877604

                         30       1    1fx3              0.603184       0.472027
                         30       1    1fx2y             0.603184       1.055484
                         30       1    1fx2z             0.603184       1.055484
                         30       1    1fxy2             0.603184       1.055484
                         30       1    1fxyz             0.603184       1.828151
                         30       1    1fxz2             0.603184       1.055484
                         30       1    1fy3              0.603184       0.472027
                         30       1    1fy2z             0.603184       1.055484
                         30       1    1fyz2             0.603184       1.055484
                         30       1    1fz3              0.603184       0.472027

                         31       1    1fx3              0.334627       0.125377
                         31       1    1fx2y             0.334627       0.280351
                         31       1    1fx2z             0.334627       0.280351
                         31       1    1fxy2             0.334627       0.280351
                         31       1    1fxyz             0.334627       0.485582
                         31       1    1fxz2             0.334627       0.280351
                         31       1    1fy3              0.334627       0.125377
                         31       1    1fy2z             0.334627       0.280351
                         31       1    1fyz2             0.334627       0.280351
                         31       1    1fz3              0.334627       0.125377

                         32       1    1gx4              4.244100      59.271490
                         32       1    1gx3y             4.244100     156.817624
                         32       1    1gx3z             4.244100     156.817624
                         32       1    1gx2y2            4.244100     202.450681
                         32       1    1gx2yz            4.244100     350.654866
                         32       1    1gx2z2            4.244100     202.450681
                         32       1    1gxy3             4.244100     156.817624
                         32       1    1gxy2z            4.244100     350.654866
                         32       1    1gxyz2            4.244100     350.654866
                         32       1    1gxz3             4.244100     156.817624
                         32       1    1gy4              4.244100      59.271490
                         32       1    1gy3z             4.244100     156.817624
                         32       1    1gy2z2            4.244100     202.450681
                         32       1    1gyz3             4.244100     156.817624
                         32       1    1gz4              4.244100      59.271490

                         33       1    1gx4              2.155990       9.203732
                         33       1    1gx3y             2.155990      24.350786
                         33       1    1gx3z             2.155990      24.350786
                         33       1    1gx2y2            2.155990      31.436730
                         33       1    1gx2yz            2.155990      54.450013
                         33       1    1gx2z2            2.155990      31.436730
                         33       1    1gxy3             2.155990      24.350786
                         33       1    1gxy2z            2.155990      54.450013
                         33       1    1gxyz2            2.155990      54.450013
                         33       1    1gxz3             2.155990      24.350786
                         33       1    1gy4              2.155990       9.203732
                         33       1    1gy3z             2.155990      24.350786
                         33       1    1gy2z2            2.155990      31.436730
                         33       1    1gyz3             2.155990      24.350786
                         33       1    1gz4              2.155990       9.203732

                         34       1    1gx4              1.023150       1.185137
                         34       1    1gx3y             1.023150       3.135578
                         34       1    1gx3z             1.023150       3.135578
                         34       1    1gx2y2            1.023150       4.048013
                         34       1    1gx2yz            1.023150       7.011365
                         34       1    1gx2z2            1.023150       4.048013
                         34       1    1gxy3             1.023150       3.135578
                         34       1    1gxy2z            1.023150       7.011365
                         34       1    1gxyz2            1.023150       7.011365
                         34       1    1gxz3             1.023150       3.135578
                         34       1    1gy4              1.023150       1.185137
                         34       1    1gy3z             1.023150       3.135578
                         34       1    1gy2z2            1.023150       4.048013
                         34       1    1gyz3             1.023150       3.135578
                         34       1    1gz4              1.023150       1.185137

                         35       1    1gx4              0.593235       0.264734
                         35       1    1gx3y             0.593235       0.700419
                         35       1    1gx3z             0.593235       0.700419
                         35       1    1gx2y2            0.593235       0.904237
                         35       1    1gx2yz            0.593235       1.566185
                         35       1    1gx2z2            0.593235       0.904237
                         35       1    1gxy3             0.593235       0.700419
                         35       1    1gxy2z            0.593235       1.566185
                         35       1    1gxyz2            0.593235       1.566185
                         35       1    1gxz3             0.593235       0.700419
                         35       1    1gy4              0.593235       0.264734
                         35       1    1gy3z             0.593235       0.700419
                         35       1    1gy2z2            0.593235       0.904237
                         35       1    1gyz3             0.593235       0.700419
                         35       1    1gz4              0.593235       0.264734

                         36       1    1hx5              2.702190      18.768121
                         36       1    1hx4y             2.702190      56.304362
                         36       1    1hx4z             2.702190      56.304362
                         36       1    1hx3y2            2.702190      86.006333
                         36       1    1hx3yz            2.702190     148.967339
                         36       1    1hx3z2            2.702190      86.006333
                         36       1    1hx2y3            2.702190      86.006333
                         36       1    1hx2y2z           2.702190     192.316007
                         36       1    1hx2yz2           2.702190     192.316007
                         36       1    1hx2z3            2.702190      86.006333
                         36       1    1hxy4             2.702190      56.304362
                         36       1    1hxy3z            2.702190     148.967339
                         36       1    1hxy2z2           2.702190     192.316007
                         36       1    1hxyz3            2.702190     148.967339
                         36       1    1hxz4             2.702190      56.304362
                         36       1    1hy5              2.702190      18.768121
                         36       1    1hy4z             2.702190      56.304362
                         36       1    1hy3z2            2.702190      86.006333
                         36       1    1hy2z3            2.702190      86.006333
                         36       1    1hyz4             2.702190      56.304362
                         36       1    1hz5              2.702190      18.768121

                         37       1    1hx5              1.508080       2.819833
                         37       1    1hx4y             1.508080       8.459499
                         37       1    1hx4z             1.508080       8.459499
                         37       1    1hx3y2            1.508080      12.922099
                         37       1    1hx3yz            1.508080      22.381731
                         37       1    1hx3z2            1.508080      12.922099
                         37       1    1hx2y3            1.508080      12.922099
                         37       1    1hx2y2z           1.508080      28.894691
                         37       1    1hx2yz2           1.508080      28.894691
                         37       1    1hx2z3            1.508080      12.922099
                         37       1    1hxy4             1.508080       8.459499
                         37       1    1hxy3z            1.508080      22.381731
                         37       1    1hxy2z2           1.508080      28.894691
                         37       1    1hxyz3            1.508080      22.381731
                         37       1    1hxz4             1.508080       8.459499
                         37       1    1hy5              1.508080       2.819833
                         37       1    1hy4z             1.508080       8.459499
                         37       1    1hy3z2            1.508080      12.922099
                         37       1    1hy2z3            1.508080      12.922099
                         37       1    1hyz4             1.508080       8.459499
                         37       1    1hz5              1.508080       2.819833

                         38       1    1hx5              0.860125       0.454642
                         38       1    1hx4y             0.860125       1.363925
                         38       1    1hx4z             0.860125       1.363925
                         38       1    1hx3y2            0.860125       2.083430
                         38       1    1hx3yz            0.860125       3.608607
                         38       1    1hx3z2            0.860125       2.083430
                         38       1    1hx2y3            0.860125       2.083430
                         38       1    1hx2y2z           0.860125       4.658691
                         38       1    1hx2yz2           0.860125       4.658691
                         38       1    1hx2z3            0.860125       2.083430
                         38       1    1hxy4             0.860125       1.363925
                         38       1    1hxy3z            0.860125       3.608607
                         38       1    1hxy2z2           0.860125       4.658691
                         38       1    1hxyz3            0.860125       3.608607
                         38       1    1hxz4             0.860125       1.363925
                         38       1    1hy5              0.860125       0.454642
                         38       1    1hy4z             0.860125       1.363925
                         38       1    1hy3z2            0.860125       2.083430
                         38       1    1hy2z3            0.860125       2.083430
                         38       1    1hyz4             0.860125       1.363925
                         38       1    1hz5              0.860125       0.454642

                         39       1    1ix6              1.702580       3.291024
                         39       1    1ix5y             1.702580      10.915092
                         39       1    1ix5z             1.702580      10.915092
                         39       1    1ix4y2            1.702580      18.905493
                         39       1    1ix4yz            1.702580      32.745275
                         39       1    1ix4z2            1.702580      18.905493
                         39       1    1ix3y3            1.702580      22.369282
                         39       1    1ix3y2z           1.702580      50.019234
                         39       1    1ix3yz2           1.702580      50.019234
                         39       1    1ix3z3            1.702580      22.369282
                         39       1    1ix2y4            1.702580      18.905493
                         39       1    1ix2y3z           1.702580      50.019234
                         39       1    1ix2y2z2          1.702580      64.574554
                         39       1    1ix2yz3           1.702580      50.019234
                         39       1    1ix2z4            1.702580      18.905493
                         39       1    1ixy5             1.702580      10.915092
                         39       1    1ixy4z            1.702580      32.745275
                         39       1    1ixy3z2           1.702580      50.019234
                         39       1    1ixy2z3           1.702580      50.019234
                         39       1    1ixyz4            1.702580      32.745275
                         39       1    1ixz5             1.702580      10.915092
                         39       1    1iy6              1.702580       3.291024
                         39       1    1iy5z             1.702580      10.915092
                         39       1    1iy4z2            1.702580      18.905493
                         39       1    1iy3z3            1.702580      22.369282
                         39       1    1iy2z4            1.702580      18.905493
                         39       1    1iyz5             1.702580      10.915092
                         39       1    1iz6              1.702580       3.291024

     The atoms of this atomic kind are PAW atoms (GAPW):
       Hard Gaussian function radius:                                      1.512
       Rho0 radius:                                                        1.512
       Maximum GTO radius used for PAW projector construction:            24.566

     GAPW Soft Basis Set                                          def2-QZVP_soft

       Number of orbital shell sets:                                          17
       Number of orbital shells:                                              17
       Number of primitive Cartesian functions:                               15
       Number of Cartesian basis functions:                                   72
       Number of spherical basis functions:                                   57
       Norm type:                                                              2

       Normalised Cartesian orbitals:

                        Set   Shell   Orbital            Exponent    Coefficient

                          1       1    1s         

                          2       1    1s         

                          3       1    1s         

                          4       1    1s                2.290502       1.326961

                          5       1    1s                0.696733       0.543513

                          6       1    1s                0.275993       0.271384

                          7       1    1s                0.107399       0.133709

                          8       1    1px               2.840700       1.549652
                                                         1.122714       1.157594
                          8       1    1py               2.840700       1.549652
                                                         1.122714       1.157594
                          8       1    1pz               2.840700       1.549652
                                                         1.122714       1.157594

                          9       1    1px               0.460507       0.540736
                          9       1    1py               0.460507       0.540736
                          9       1    1pz               0.460507       0.540736

                         10       1    1px               0.189375       0.178071
                         10       1    1py               0.189375       0.178071
                         10       1    1pz               0.189375       0.178071

                         11       1    1px               0.075984       0.056865
                         11       1    1py               0.075984       0.056865
                         11       1    1pz               0.075984       0.056865

                         12       1    1dx2              1.848000       4.821009
                         12       1    1dxy              1.848000       8.350232
                         12       1    1dxz              1.848000       8.350232
                         12       1    1dy2              1.848000       4.821009
                         12       1    1dyz              1.848000       8.350232
                         12       1    1dz2              1.848000       4.821009

                         13       1    1dx2              0.649000       0.772392
                         13       1    1dxy              0.649000       1.337822
                         13       1    1dxz              0.649000       1.337822
                         13       1    1dy2              0.649000       0.772392
                         13       1    1dyz              0.649000       1.337822
                         13       1    1dz2              0.649000       0.772392

                         14       1    1dx2              0.228000       0.123821
                         14       1    1dxy              0.228000       0.214465
                         14       1    1dxz              0.228000       0.214465
                         14       1    1dy2              0.228000       0.123821
                         14       1    1dyz              0.228000       0.214465
                         14       1    1dz2              0.228000       0.123821

                         15       1    1fx3              1.419000       3.235302
                         15       1    1fx2y             1.419000       7.234355
                         15       1    1fx2z             1.419000       7.234355
                         15       1    1fxy2             1.419000       7.234355
                         15       1    1fxyz             1.419000      12.530271
                         15       1    1fxz2             1.419000       7.234355
                         15       1    1fy3              1.419000       3.235302
                         15       1    1fy2z             1.419000       7.234355
                         15       1    1fyz2             1.419000       7.234355
                         15       1    1fz3              1.419000       3.235302

                         16       1    1fx3              0.485000       0.288984
                         16       1    1fx2y             0.485000       0.646187
                         16       1    1fx2z             0.485000       0.646187
                         16       1    1fxy2             0.485000       0.646187
                         16       1    1fxyz             0.485000       1.119229
                         16       1    1fxz2             0.485000       0.646187
                         16       1    1fy3              0.485000       0.288984
                         16       1    1fy2z             0.485000       0.646187
                         16       1    1fyz2             0.485000       0.646187
                         16       1    1fz3              0.485000       0.288984

                         17       1    1gx4              1.011000       1.146835
                         17       1    1gx3y             1.011000       3.034241
                         17       1    1gx3z             1.011000       3.034241
                         17       1    1gx2y2            1.011000       3.917189
                         17       1    1gx2yz            1.011000       6.784770
                         17       1    1gx2z2            1.011000       3.917189
                         17       1    1gxy3             1.011000       3.034241
                         17       1    1gxy2z            1.011000       6.784770
                         17       1    1gxyz2            1.011000       6.784770
                         17       1    1gxz3             1.011000       3.034241
                         17       1    1gy4              1.011000       1.146835
                         17       1    1gy3z             1.011000       3.034241
                         17       1    1gy2z2            1.011000       3.917189
                         17       1    1gyz3             1.011000       3.034241
                         17       1    1gz4              1.011000       1.146835

     AE Potential information for                                            ALL

       Description:                                       All-electron potential
                                          Krack, Parrinello, PCCP 2, 2105 (2000)

       Gaussian exponent of the core charge distribution:               4.109048
       Electronic configuration (s p d ...):                           4   2   0

  2. Atomic kind: H                                     Number of atoms:       2

     Orbital Basis Set                                                 def2-QZVP

       Number of orbital shell sets:                                          10
       Number of orbital shells:                                              10
       Number of primitive Cartesian functions:                               13
       Number of Cartesian basis functions:                                   35
       Number of spherical basis functions:                                   30
       Norm type:                                                              2

       Normalised Cartesian orbitals:

                        Set   Shell   Orbital            Exponent    Coefficient

                          1       1    1s              190.691690       0.195396
                                                        28.605532       0.363661
                                                         6.509594       0.612837
                                                         1.841246       0.914889

                          2       1    1s                0.598537       0.484985

                          3       1    1s                0.213976       0.224225

                          4       1    1s                0.080316       0.107526

                          5       1    1px               2.292000       4.019836
                          5       1    1py               2.292000       4.019836
                          5       1    1pz               2.292000       4.019836

                          6       1    1px               0.838000       1.142865
                          6       1    1py               0.838000       1.142865
                          6       1    1pz               0.838000       1.142865

                          7       1    1px               0.292000       0.305963
                          7       1    1py               0.292000       0.305963
                          7       1    1pz               0.292000       0.305963

                          8       1    1dx2              2.062000       5.840024
                          8       1    1dxy              2.062000      10.115218
                          8       1    1dxz              2.062000      10.115218
                          8       1    1dy2              2.062000       5.840024
                          8       1    1dyz              2.062000      10.115218
                          8       1    1dz2              2.062000       5.840024

                          9       1    1dx2              0.662000       0.799670
                          9       1    1dxy              0.662000       1.385069
                          9       1    1dxz              0.662000       1.385069
                          9       1    1dy2              0.662000       0.799670
                          9       1    1dyz              0.662000       1.385069
                          9       1    1dz2              0.662000       0.799670

                         10       1    1fx3              1.397000       3.123535
                         10       1    1fx2y             1.397000       6.984436
                         10       1    1fx2z             1.397000       6.984436
                         10       1    1fxy2             1.397000       6.984436
                         10       1    1fxyz             1.397000      12.097399
                         10       1    1fxz2             1.397000       6.984436
                         10       1    1fy3              1.397000       3.123535
                         10       1    1fy2z             1.397000       6.984436
                         10       1    1fyz2             1.397000       6.984436
                         10       1    1fz3              1.397000       3.123535

     RI Auxiliary Basis Set                                                RI-5Z

       Number of orbital shell sets:                                          21
       Number of orbital shells:                                              21
       Number of primitive Cartesian functions:                               21
       Number of Cartesian basis functions:                                  126
       Number of spherical basis functions:                                   91
       Norm type:                                                              2

       Normalised Cartesian orbitals:

                        Set   Shell   Orbital            Exponent    Coefficient

                          1       1    1s               23.321500       7.563581

                          2       1    1s                4.922970       2.355486

                          3       1    1s                1.775100       1.096042

                          4       1    1s                0.994218       0.709613

                          5       1    1s                0.506054       0.427620

                          6       1    1s                0.236911       0.242019

                          7       1    1px               5.974580      13.314483
                          7       1    1py               5.974580      13.314483
                          7       1    1pz               5.974580      13.314483

                          8       1    1px               2.052170       3.501118
                          8       1    1py               2.052170       3.501118
                          8       1    1pz               2.052170       3.501118

                          9       1    1px               1.248660       1.881462
                          9       1    1py               1.248660       1.881462
                          9       1    1pz               1.248660       1.881462

                         10       1    1px               0.805545       1.087808
                         10       1    1py               0.805545       1.087808
                         10       1    1pz               0.805545       1.087808

                         11       1    1px               0.347892       0.380843
                         11       1    1py               0.347892       0.380843
                         11       1    1pz               0.347892       0.380843

                         12       1    1dx2              3.858160      17.481346
                         12       1    1dxy              3.858160      30.278579
                         12       1    1dxz              3.858160      30.278579
                         12       1    1dy2              3.858160      17.481346
                         12       1    1dyz              3.858160      30.278579
                         12       1    1dz2              3.858160      17.481346

                         13       1    1dx2              1.710630       4.211459
                         13       1    1dxy              1.710630       7.294461
                         13       1    1dxz              1.710630       7.294461
                         13       1    1dy2              1.710630       4.211459
                         13       1    1dyz              1.710630       7.294461
                         13       1    1dz2              1.710630       4.211459

                         14       1    1dx2              0.979237       1.586584
                         14       1    1dxy              0.979237       2.748044
                         14       1    1dxz              0.979237       2.748044
                         14       1    1dy2              0.979237       1.586584
                         14       1    1dyz              0.979237       2.748044
                         14       1    1dz2              0.979237       1.586584

                         15       1    1dx2              0.625366       0.723843
                         15       1    1dxy              0.625366       1.253733
                         15       1    1dxz              0.625366       1.253733
                         15       1    1dy2              0.625366       0.723843
                         15       1    1dyz              0.625366       1.253733
                         15       1    1dz2              0.625366       0.723843

                         16       1    1fx3              3.101510      18.792914
                         16       1    1fx2y             3.101510      42.022232
                         16       1    1fx2z             3.101510      42.022232
                         16       1    1fxy2             3.101510      42.022232
                         16       1    1fxyz             3.101510      72.784641
                         16       1    1fxz2             3.101510      42.022232
                         16       1    1fy3              3.101510      18.792914
                         16       1    1fy2z             3.101510      42.022232
                         16       1    1fyz2             3.101510      42.022232
                         16       1    1fz3              3.101510      18.792914

                         17       1    1fx3              1.198110       2.210915
                         17       1    1fx2y             1.198110       4.943756
                         17       1    1fx2z             1.198110       4.943756
                         17       1    1fxy2             1.198110       4.943756
                         17       1    1fxyz             1.198110       8.562836
                         17       1    1fxz2             1.198110       4.943756
                         17       1    1fy3              1.198110       2.210915
                         17       1    1fy2z             1.198110       4.943756
                         17       1    1fyz2             1.198110       4.943756
                         17       1    1fz3              1.198110       2.210915

                         18       1    1fx3              0.572873       0.420326
                         18       1    1fx2y             0.572873       0.939876
                         18       1    1fx2z             0.572873       0.939876
                         18       1    1fxy2             0.572873       0.939876
                         18       1    1fxyz             0.572873       1.627914
                         18       1    1fxz2             0.572873       0.939876
                         18       1    1fy3              0.572873       0.420326
                         18       1    1fy2z             0.572873       0.939876
                         18       1    1fyz2             0.572873       0.939876
                         18       1    1fz3              0.572873       0.420326

                         19       1    1gx4              2.987800      22.576266
                         19       1    1gx3y             2.987800      59.731185
                         19       1    1gx3z             2.987800      59.731185
                         19       1    1gx2y2            2.987800      77.112629
                         19       1    1gx2yz            2.987800     133.562991
                         19       1    1gx2z2            2.987800      77.112629
                         19       1    1gxy3             2.987800      59.731185
                         19       1    1gxy2z            2.987800     133.562991
                         19       1    1gxyz2            2.987800     133.562991
                         19       1    1gxz3             2.987800      59.731185
                         19       1    1gy4              2.987800      22.576266
                         19       1    1gy3z             2.987800      59.731185
                         19       1    1gy2z2            2.987800      77.112629
                         19       1    1gyz3             2.987800      59.731185
                         19       1    1gz4              2.987800      22.576266

                         20       1    1gx4              1.231920       1.974865
                         20       1    1gx3y             1.231920       5.225001
                         20       1    1gx3z             1.231920       5.225001
                         20       1    1gx2y2            1.231920       6.745447
                         20       1    1gx2yz            1.231920      11.683456
                         20       1    1gx2z2            1.231920       6.745447
                         20       1    1gxy3             1.231920       5.225001
                         20       1    1gxy2z            1.231920      11.683456
                         20       1    1gxyz2            1.231920      11.683456
                         20       1    1gxz3             1.231920       5.225001
                         20       1    1gy4              1.231920       1.974865
                         20       1    1gy3z             1.231920       5.225001
                         20       1    1gy2z2            1.231920       6.745447
                         20       1    1gyz3             1.231920       5.225001
                         20       1    1gz4              1.231920       1.974865

                         21       1    1hx5              3.247390      34.106027
                         21       1    1hx4y             3.247390     102.318080
                         21       1    1hx4z             3.247390     102.318080
                         21       1    1hx3y2            3.247390     156.293448
                         21       1    1hx3yz            3.247390     270.708193
                         21       1    1hx3z2            3.247390     156.293448
                         21       1    1hx2y3            3.247390     156.293448
                         21       1    1hx2y2z           3.247390     349.482775
                         21       1    1hx2yz2           3.247390     349.482775
                         21       1    1hx2z3            3.247390     156.293448
                         21       1    1hxy4             3.247390     102.318080
                         21       1    1hxy3z            3.247390     270.708193
                         21       1    1hxy2z2           3.247390     349.482775
                         21       1    1hxyz3            3.247390     270.708193
                         21       1    1hxz4             3.247390     102.318080
                         21       1    1hy5              3.247390      34.106027
                         21       1    1hy4z             3.247390     102.318080
                         21       1    1hy3z2            3.247390     156.293448
                         21       1    1hy2z3            3.247390     156.293448
                         21       1    1hyz4             3.247390     102.318080
                         21       1    1hz5              3.247390      34.106027

     The atoms of this atomic kind are PAW atoms (GAPW):
       Hard Gaussian function radius:                                      1.200
       Rho0 radius:                                                        1.200
       Maximum GTO radius used for PAW projector construction:            24.566

     GAPW Soft Basis Set                                          def2-QZVP_soft

       Number of orbital shell sets:                                          10
       Number of orbital shells:                                              10
       Number of primitive Cartesian functions:                               10
       Number of Cartesian basis functions:                                   35
       Number of spherical basis functions:                                   30
       Norm type:                                                              2

       Normalised Cartesian orbitals:

                        Set   Shell   Orbital            Exponent    Coefficient

                          1       1    1s                1.841246       0.914889

                          2       1    1s                0.598537       0.484985

                          3       1    1s                0.213976       0.224225

                          4       1    1s                0.080316       0.107526

                          5       1    1px               2.292000       4.019836
                          5       1    1py               2.292000       4.019836
                          5       1    1pz               2.292000       4.019836

                          6       1    1px               0.838000       1.142865
                          6       1    1py               0.838000       1.142865
                          6       1    1pz               0.838000       1.142865

                          7       1    1px               0.292000       0.305963
                          7       1    1py               0.292000       0.305963
                          7       1    1pz               0.292000       0.305963

                          8       1    1dx2              2.062000       5.840024
                          8       1    1dxy              2.062000      10.115218
                          8       1    1dxz              2.062000      10.115218
                          8       1    1dy2              2.062000       5.840024
                          8       1    1dyz              2.062000      10.115218
                          8       1    1dz2              2.062000       5.840024

                          9       1    1dx2              0.662000       0.799670
                          9       1    1dxy              0.662000       1.385069
                          9       1    1dxz              0.662000       1.385069
                          9       1    1dy2              0.662000       0.799670
                          9       1    1dyz              0.662000       1.385069
                          9       1    1dz2              0.662000       0.799670

                         10       1    1fx3              1.397000       3.123535
                         10       1    1fx2y             1.397000       6.984436
                         10       1    1fx2z             1.397000       6.984436
                         10       1    1fxy2             1.397000       6.984436
                         10       1    1fxyz             1.397000      12.097399
                         10       1    1fxz2             1.397000       6.984436
                         10       1    1fy3              1.397000       3.123535
                         10       1    1fy2z             1.397000       6.984436
                         10       1    1fyz2             1.397000       6.984436
                         10       1    1fz3              1.397000       3.123535

     AE Potential information for                                            ALL

       Description:                                       All-electron potential
                                          Krack, Parrinello, PCCP 2, 2105 (2000)

       Gaussian exponent of the core charge distribution:              12.500000
       Electronic configuration (s p d ...):                           1   0   0


 MOLECULE KIND INFORMATION


 All atoms are their own molecule, skipping detailed information


 TOTAL NUMBERS AND MAXIMUM NUMBERS

  Total number of            - Atomic kinds:                                   2
                             - Atoms:                                          4
                             - Shell sets:                                    54
                             - Shells:                                        54
                             - Primitive Cartesian functions:                 84
                             - Cartesian basis functions:                    214
                             - Spherical basis functions:                    174

  Maximum angular momentum of the orbital basis functions:                     4


 MODULE QUICKSTEP:  ATOMIC COORDINATES IN angstrom

  Atom  Kind  Element       X           Y           Z          Z(eff)       Mass

       1     1 C    6    8.000000    8.000000    8.601500      6.00      12.0107
       2     1 C    6    8.000000    8.000000    7.398500      6.00      12.0107
       3     2 H    1    8.000000    8.000000    9.661500      1.00       1.0079
       4     2 H    1    8.000000    8.000000    6.338500      1.00       1.0079




 SCF PARAMETERS         Density guess:                                   RESTART
                        --------------------------------------------------------
                        max_scf:                                             200
                        max_scf_history:                                       0
                        max_diis:                                              4
                        --------------------------------------------------------
                        eps_scf:                                        1.00E-06
                        eps_scf_history:                                0.00E+00
                        eps_diis:                                       1.00E-01
                        eps_eigval:                                     1.00E-05
                        --------------------------------------------------------
                        level_shift [a.u.]:                                 0.00
                        --------------------------------------------------------
                        Mixing method:                           DIRECT_P_MIXING
                        --------------------------------------------------------
                        No outer SCF

 PW_GRID| Information for grid number                                          1
 PW_GRID| Grid distributed over                                    24 processors
 PW_GRID| Real space group dimensions                                    24    1
 PW_GRID| the grid is blocked:                                                NO
 PW_GRID| Cutoff [a.u.]                                                    400.0
 PW_GRID| spherical cutoff:                                                   NO
 PW_GRID|   Bounds   1           -144     143                Points:         288
 PW_GRID|   Bounds   2           -144     143                Points:         288
 PW_GRID|   Bounds   3           -144     143                Points:         288
 PW_GRID| Volume element (a.u.^3)  0.1157E-02     Volume (a.u.^3)     27641.1785
 PW_GRID| Grid span                                                    FULLSPACE
 PW_GRID|   Distribution                         Average         Max         Min
 PW_GRID|   G-Vectors                           995328.0      995328      995328
 PW_GRID|   G-Rays                                3456.0        3456        3456
 PW_GRID|   Real Space Points                   995328.0      995328      995328

 PW_GRID| Information for grid number                                          2
 PW_GRID| Grid distributed over                                    24 processors
 PW_GRID| Real space group dimensions                                    24    1
 PW_GRID| the grid is blocked:                                                NO
 PW_GRID| Cutoff [a.u.]                                                    200.0
 PW_GRID| spherical cutoff:                                                   NO
 PW_GRID|   Bounds   1           -100      99                Points:         200
 PW_GRID|   Bounds   2           -100      99                Points:         200
 PW_GRID|   Bounds   3           -100      99                Points:         200
 PW_GRID| Volume element (a.u.^3)  0.3455E-02     Volume (a.u.^3)     27641.1785
 PW_GRID| Grid span                                                    FULLSPACE
 PW_GRID|   Distribution                         Average         Max         Min
 PW_GRID|   G-Vectors                           333333.3      333600      333200
 PW_GRID|   G-Rays                                1666.7        1668        1666
 PW_GRID|   Real Space Points                   333333.3      360000      320000

 PW_GRID| Information for grid number                                          3
 PW_GRID| Grid distributed over                                    24 processors
 PW_GRID| Real space group dimensions                                    24    1
 PW_GRID| the grid is blocked:                                                NO
 PW_GRID| Cutoff [a.u.]                                                     66.7
 PW_GRID| spherical cutoff:                                                   NO
 PW_GRID|   Bounds   1            -60      59                Points:         120
 PW_GRID|   Bounds   2            -60      59                Points:         120
 PW_GRID|   Bounds   3            -60      59                Points:         120
 PW_GRID| Volume element (a.u.^3)  0.1600E-01     Volume (a.u.^3)     27641.1785
 PW_GRID| Grid span                                                    FULLSPACE
 PW_GRID|   Distribution                         Average         Max         Min
 PW_GRID|   G-Vectors                            72000.0       72360       71760
 PW_GRID|   G-Rays                                 600.0         603         598
 PW_GRID|   Real Space Points                    72000.0       72000       72000

 PW_GRID| Information for grid number                                          4
 PW_GRID| Grid distributed over                                    24 processors
 PW_GRID| Real space group dimensions                                    24    1
 PW_GRID| the grid is blocked:                                                NO
 PW_GRID| Cutoff [a.u.]                                                     22.2
 PW_GRID| spherical cutoff:                                                   NO
 PW_GRID|   Bounds   1            -36      35                Points:          72
 PW_GRID|   Bounds   2            -36      35                Points:          72
 PW_GRID|   Bounds   3            -36      35                Points:          72
 PW_GRID| Volume element (a.u.^3)  0.7406E-01     Volume (a.u.^3)     27641.1785
 PW_GRID| Grid span                                                    FULLSPACE
 PW_GRID|   Distribution                         Average         Max         Min
 PW_GRID|   G-Vectors                            15552.0       15768       15408
 PW_GRID|   G-Rays                                 216.0         219         214
[...]
 flops    30 x    57 x    57               779760     100.0%      0.0%      0.0%
 flops    30 x    30 x    57               820800     100.0%      0.0%      0.0%
 flops    30 x   114 x    30               820800     100.0%      0.0%      0.0%
 flops   114 x    30 x    30               820800     100.0%      0.0%      0.0%
 flops    57 x    57 x     7              1364580     100.0%      0.0%      0.0%
 flops    57 x    57 x    57              1481544     100.0%      0.0%      0.0%
 flops   114 x   114 x    30              1559520     100.0%      0.0%      0.0%
 flops    30 x   114 x    57              1559520     100.0%      0.0%      0.0%
 flops   114 x    30 x    57              1559520     100.0%      0.0%      0.0%
 flops   114 x   114 x    57              2963088     100.0%      0.0%      0.0%
 flops    91 x    91 x    91            168799904     100.0%      0.0%      0.0%
 flops    91 x    91 x   193            358004192     100.0%      0.0%      0.0%
 flops    91 x   193 x    91            358004192     100.0%      0.0%      0.0%
 flops   193 x    91 x    91            358004192     100.0%      0.0%      0.0%
 flops    91 x    30 x    30            623750400     100.0%      0.0%      0.0%
 flops   193 x   193 x    91            759283616     100.0%      0.0%      0.0%
 flops    91 x   193 x   193            759283616     100.0%      0.0%      0.0%
 flops   193 x    91 x   193            759283616     100.0%      0.0%      0.0%
 flops    91 x    30 x    91            946021440     100.0%      0.0%      0.0%
 flops    91 x    30 x    57           1185125760     100.0%      0.0%      0.0%
 flops    91 x   114 x    30           1185125760     100.0%      0.0%      0.0%
 flops   386 x    30 x    30           1322899200     100.0%      0.0%      0.0%
 flops   193 x   193 x   193           1610348768     100.0%      0.0%      0.0%
 flops    91 x   114 x    91           1797440736     100.0%      0.0%      0.0%
 flops    91 x    30 x   193           2006397120     100.0%      0.0%      0.0%
 flops   386 x    30 x    91           2006397120     100.0%      0.0%      0.0%
 flops    30 x   690 x    30           2225664000     100.0%      0.0%      0.0%
 flops    91 x   114 x    57           2251738944     100.0%      0.0%      0.0%
 flops   386 x   114 x    30           2513508480     100.0%      0.0%      0.0%
 flops   386 x    30 x    57           2513508480     100.0%      0.0%      0.0%
 flops   386 x   114 x    91           3812154528     100.0%      0.0%      0.0%
 flops    91 x   114 x   193           3812154528     100.0%      0.0%      0.0%
 flops    30 x   690 x    57           4228761600     100.0%      0.0%      0.0%
 flops    30 x  1311 x    30           4228761600     100.0%      0.0%      0.0%
 flops   386 x    30 x   193           4255325760     100.0%      0.0%      0.0%
 flops    57 x   690 x    30           4304275200     100.0%      0.0%      0.0%
 flops    30 x   720 x    30           4644864000     100.0%      0.0%      0.0%
 flops   386 x   114 x    57           4775666112     100.0%      0.0%      0.0%
 flops    30 x  1311 x    57           8034647040     100.0%      0.0%      0.0%
 flops   386 x   114 x   193           8085118944     100.0%      0.0%      0.0%
 flops    57 x   690 x    57           8178122880     100.0%      0.0%      0.0%
 flops    57 x  1311 x    30           8178122880     100.0%      0.0%      0.0%
 flops    30 x   720 x    57           8825241600     100.0%      0.0%      0.0%
 flops    30 x  1368 x    30           8825241600     100.0%      0.0%      0.0%
 flops    57 x   720 x    30           8982835200     100.0%      0.0%      0.0%
 flops    91 x    91 x  1247          13878691008     100.0%      0.0%      0.0%
 flops    91 x    91 x  1276          14201451264     100.0%      0.0%      0.0%
 flops    57 x  1311 x    57          15538433472     100.0%      0.0%      0.0%
 flops    30 x  1368 x    57          16767959040     100.0%      0.0%      0.0%
 flops    57 x   720 x    57          17067386880     100.0%      0.0%      0.0%
 flops    57 x  1368 x    30          17067386880     100.0%      0.0%      0.0%
 flops   193 x    91 x  1247          29435025984     100.0%      0.0%      0.0%
 flops    91 x   193 x  1247          29435025984     100.0%      0.0%      0.0%
 flops   193 x    91 x  1276          30119561472     100.0%      0.0%      0.0%
 flops    91 x   193 x  1276          30119561472     100.0%      0.0%      0.0%
 flops    57 x  1368 x    57          32428035072     100.0%      0.0%      0.0%
 flops   193 x   193 x  1247          62428132032     100.0%      0.0%      0.0%
 flops   193 x   193 x  1276          63879949056     100.0%      0.0%      0.0%
 flops inhomo. stacks                           0       0.0%      0.0%      0.0%
 flops total                       491.263170E+09     100.0%      0.0%      0.0%
 flops max/rank                     40.253999E+09     100.0%      0.0%      0.0%
 matmuls inhomo. stacks                         0       0.0%      0.0%      0.0%
 matmuls total                              75520     100.0%      0.0%      0.0%
 number of processed stacks                 33152     100.0%      0.0%      0.0%
 average stack size                                     2.3       0.0       0.0
 marketing flops                   495.280390E+09
 -------------------------------------------------------------------------------
 # multiplications                            783
 max memory usage/rank             562.094080E+06
 # max total images/rank                        3
 # max 3D layers                                1
 # MPI messages exchanged                  337440
 MPI messages size (bytes):
  total size                         6.156774E+09
  min size                           0.000000E+00
  max size                         595.984000E+03
  average size                      18.245537E+03
 MPI breakdown and total messages size (bytes):
             size <=      128              267144                        0
       128 < size <=     8192                6004                 42280320
      8192 < size <=    32768               21034                428232912
     32768 < size <=   131072               26654               1581648288
    131072 < size <=  4194304               16604               4104619008
   4194304 < size <= 16777216                   0                        0
  16777216 < size                               0                        0
 -------------------------------------------------------------------------------

 *** WARNING in dbcsr_mm.F:278 :: Using a non-square number of MPI ranks ***
 *** might lead to poor performance. Used ranks: 24 Suggested: 25 49     ***

 -------------------------------------------------------------------------------
 -                                                                             -
 -                      DBCSR MESSAGE PASSING PERFORMANCE                      -
 -                                                                             -
 -------------------------------------------------------------------------------

 ROUTINE             CALLS      AVE VOLUME [Bytes]
 MP_Group               43
 MP_Bcast               65                     12.
 MP_Allreduce         4543                      9.
 MP_Alltoall          2611                  54438.
 MP_Wait             42472
 MP_ISend            31252                  29562.
 MP_IRecv            31280                   9764.
 MP_Memory           57330
 -------------------------------------------------------------------------------


 MEMORY| Estimated peak process memory [MiB]                                 537

 -------------------------------------------------------------------------------
 ----                             MULTIGRID INFO                            ----
 -------------------------------------------------------------------------------
 count for grid        1:         128759          cutoff [a.u.]          200.00
 count for grid        2:          34901          cutoff [a.u.]           66.67
 count for grid        3:          14137          cutoff [a.u.]           22.22
 count for grid        4:           2923          cutoff [a.u.]            7.41
 total gridlevel count  :         180720

 -------------------------------------------------------------------------------
 -                                                                             -
 -                         MESSAGE PASSING PERFORMANCE                         -
 -                                                                             -
 -------------------------------------------------------------------------------

 ROUTINE             CALLS      AVE VOLUME [Bytes]
 MP_Group                5
 MP_Bcast              267                2136747.
 MP_Allreduce          615                  66474.
 MP_Sync                81
 MP_Alltoall           303                9359522.
 MP_ISendRecv         1104                  72049.
 MP_Wait              3496
 MP_comm_split          19
 MP_ISend             4964                 197697.
 MP_IRecv             4534                 286675.
 MP_Recv                 3                   2784.
 -------------------------------------------------------------------------------


 -------------------------------------------------------------------------------
 -                                                                             -
 -                           R E F E R E N C E S                               -
 -                                                                             -
 -------------------------------------------------------------------------------
 
 CP2K version 7.0 (Development Version), the CP2K developers group (2018).
 CP2K is freely available from https://www.cp2k.org/ .

 Schuett, Ole; Messmer, Peter; Hutter, Juerg; VandeVondele, Joost. 
 Electronic Structure Calculations on Graphics Processing Units, John Wiley & Sons, Ltd, 173-190 (2016). 
 GPU-Accelerated Sparse Matrix-Matrix Multiplication for Linear Scaling Density Functional Theory.
 https://dx.doi.org/10.1002/9781118670712.ch8


 Del Ben, M; Schuett, O; Wentz, T; Messmer, P; Hutter, J;
 VandeVondele, J. 
 COMPUTER PHYSICS COMMUNICATIONS, 187, 120-129 (2015). 
 Enabling simulation at the fifth rung of DFT: Large scale RPA
 calculations with excellent time to solution.
 https://dx.doi.org/10.1016/j.cpc.2014.10.021


 Borstnik, U; VandeVondele, J; Weber, V; Hutter, J. 
 PARALLEL COMPUTING, 40 (5-6), 47-58 (2014). 
 Sparse matrix multiplication: The distributed block-compressed sparse
 row library.
 https://dx.doi.org/10.1016/j.parco.2014.03.012


 Hutter, J; Iannuzzi, M; Schiffmann, F; VandeVondele, J. 
 WILEY INTERDISCIPLINARY REVIEWS-COMPUTATIONAL MOLECULAR SCIENCE, 4 (1), 15-25 (2014). 
 CP2K: atomistic simulations of condensed matter systems.
 https://dx.doi.org/10.1002/wcms.1159


 Del Ben, M; Hutter, J; VandeVondele, J. 
 JOURNAL OF CHEMICAL THEORY AND COMPUTATION, 9 (6), 2654-2671 (2013). 
 Electron Correlation in the Condensed Phase from a Resolution of
 Identity Approach Based on the Gaussian and Plane Waves Scheme.
 https://dx.doi.org/10.1021/ct4002202


 Del Ben, M; Hutter, J; VandeVondele, J. 
 JOURNAL OF CHEMICAL THEORY AND COMPUTATION, 8 (11), 4177-4188 (2012). 
 Second-Order Moller-Plesset Perturbation Theory in the Condensed Phase:
 An Efficient and Massively Parallel Gaussian and Plane Waves Approach.
 https://dx.doi.org/10.1021/ct300531w


 Guidon, M; Hutter, J; VandeVondele, J. 
 JOURNAL OF CHEMICAL THEORY AND COMPUTATION, 5 (11), 3010-3021 (2009). 
 Robust Periodic Hartree-Fock Exchange for Large-Scale Simulations Using
 Gaussian Basis Sets.
 https://dx.doi.org/10.1021/ct900494g


 Guidon, M; Schiffmann, F; Hutter, J; VandeVondele, J. 
 JOURNAL OF CHEMICAL PHYSICS, 128 (21), 214104 (2008). 
 Ab initio molecular dynamics using hybrid density functionals.
 https://dx.doi.org/10.1063/1.2931945


 Frigo, M; Johnson, SG. 
 PROCEEDINGS OF THE IEEE, 93 (2), 216-231 (2005). 
 The design and implementation of FFTW3.
 https://dx.doi.org/10.1109/JPROC.2004.840301


 Lippert, G; Hutter, J; Parrinello, M. 
 THEORETICAL CHEMISTRY ACCOUNTS, 103 (2), 124-140 (1999). 
 The Gaussian and augmented-plane-wave density functional method for ab
 initio molecular dynamics simulations.
 https://dx.doi.org/10.1007/s002140050523


 Krack, M; Parrinello, M. 
 PHYSICAL CHEMISTRY CHEMICAL PHYSICS, 2 (10), 2105-2112 (2000). 
 All-electron ab-initio molecular dynamics.
 https://dx.doi.org/10.1039/b001167n


 Martyna, GJ; Tuckerman, ME. 
 JOURNAL OF CHEMICAL PHYSICS, 110 (6), 2810-2821 (1999). 
 A reciprocal space based method for treating long range interactions in
 ab initio and force-field-based calculations in clusters.
 https://dx.doi.org/10.1063/1.477923


 Perdew, JP; Burke, K; Ernzerhof, M. 
 PHYSICAL REVIEW LETTERS, 77 (18), 3865-3868 (1996). 
 Generalized gradient approximation made simple.
 https://dx.doi.org/10.1103/PhysRevLett.77.3865


 -------------------------------------------------------------------------------
 -                                                                             -
 -                                T I M I N G                                  -
 -                                                                             -
 -------------------------------------------------------------------------------
 SUBROUTINE                       CALLS  ASD         SELF TIME        TOTAL TIME
                                MAXIMUM       AVERAGE  MAXIMUM  AVERAGE  MAXIMUM
 CP2K                                 1  1.0    0.029    0.046  107.515  107.516
 qs_energies                          1  2.0    0.000    0.000  105.964  105.965
 mp2_main                             1  3.0    0.000    0.000   79.720   79.724
 mp2_gpw_main                         1  4.0    0.000    0.001   64.880   64.882
 mp2_ri_gpw_compute_in                1  5.0    0.000    0.000   31.892   39.078
 compute_3c_overlap_int               1  6.0   10.187   12.140   30.626   37.812
 rpa_ri_compute_en                    1  5.0    0.000    0.000   25.794   25.796
 rpa_num_int                          1  6.0    0.001    0.002   25.791   25.793
 scf_env_do_scf                       1  3.0    0.000    0.000   25.449   25.449
 scf_env_do_scf_inner_loop           10  4.0    0.001    0.001   25.449   25.449
 compute_3c_overlap_int_put_dbc   69984  7.0   19.853   24.868   19.853   24.868
 qs_ks_build_kohn_sham_matrix        11  6.8    0.003    0.005   21.698   21.717
 qs_ks_update_qs_env                 10  5.0    0.000    0.000   20.857   20.874
 rebuild_ks_matrix                   10  6.0    0.000    0.000   20.855   20.873
 dbcsr_multiply_generic             783  9.9    0.055    0.063   14.774   16.520
 mp_comm_split_direct                 8  6.6    7.510   15.620    7.510   15.620
 create_dbcsr_matrices_im_time        1  5.0    0.001    0.001    7.190   15.463
 compute_vec_Sigma_x_minus_vxc_       1  4.0    0.000    0.000   14.821   14.821
 integrate_four_center                1  5.0    0.003    0.004   13.971   13.973
 pw_transfer                        228  9.5    0.021    0.025   13.158   13.858
 fft_wrap_pw1pw2                    193 10.6    0.003    0.003   12.976   13.652
 multiply_cannon                    783 10.9    0.144    0.155   11.761   13.434
 fft_wrap_pw1pw2_200                126 11.7    0.690    0.797   12.106   12.823
 compute_mat_P_omega                  1  7.0    0.000    0.001   10.907   10.918
 fft3d_ps                           193 12.6    4.653    5.134    9.526   10.417
 multiply_cannon_multrec           8923 11.9    6.034    9.637    6.573    9.696
 qs_vxc_create                       11  7.8    0.000    0.001    8.720    8.721
 xc_vxc_pw_create                    10  9.0    0.130    0.149    8.720    8.720
 GW_postprocessing                    1  7.0    0.000    0.000    8.670    8.670
 compute_self_energy_im_time_gw       1  8.0    0.003    0.004    8.670    8.670
 calc_screening_functions             1  6.0    4.399    4.609    6.971    7.307
 compute_mat_P_omega_calc_P          14  8.0    0.000    0.001    6.516    6.656
 rs_pw_transfer                     112  9.3    0.003    0.003    5.789    6.335
 mp_waitall_1                     43936 13.5    4.475    6.098    4.475    6.098
 multiply_cannon_metrocomm3        8923 11.9    0.018    0.022    2.928    5.811
 mp_sum_d                          1068  6.4    3.505    5.500    3.505    5.500
 multiply_cannon_metrocomm1        8923 11.9    0.012    0.015    1.257    4.989
 mp_sync                             81  8.7    2.959    4.966    2.959    4.966
 mp_alltoall_z22v                   193 14.6    3.367    4.792    3.367    4.792
 qs_rho_update_rho                   11  5.0    0.000    0.000    4.787    4.788
 calculate_rho_elec                  11  6.0    0.207    1.269    4.740    4.743
 compute_self_energy_im_time_gw     238  9.0    0.001    0.002    4.042    4.625
 xc_rho_set_and_dset_create          10 10.0    0.083    0.097    3.909    4.585
 density_rs2pw                       11  7.0    0.001    0.001    4.272    4.512
 powell_optimize                 739674  7.0    4.122    4.332    4.122    4.332
 mp_waitany                        1948 11.3    3.051    4.162    3.051    4.162
 prepare_gapw_den                    11  7.8    0.000    0.001    3.632    3.713
 yz_to_x                             97 13.2    0.715    0.925    2.737    3.679
 integrate_four_center_main           1  6.0    0.000    0.000    2.221    3.547
 integrate_four_center_bin          127  7.0    2.221    3.547    2.221    3.547
 sum_up_and_integrate                11  7.8    0.028    0.044    3.254    3.538
 integrate_v_rspace                  11  8.8    0.092    0.547    3.227    3.514
 rpa_num_int_im_t_alloc_mat_gw        1  7.0    0.000    0.000    0.350    3.016
 allocate_matrices_gw_im_time         1  8.0    0.000    0.000    0.350    3.016
 get_mat_3c_overl_int_gw              1  9.0    0.002    0.002    0.349    3.014
 calc_pair_dist_radii                 1  6.0    1.338    1.380    2.887    2.994
 fill_mat_3c_overl_int_gw             1 10.0    0.000    0.000    0.309    2.970
 rpa_num_int_im_t_alloc_mat_24        1  7.0    0.000    0.000    2.668    2.953
 cp_fm_copy_general                   2  8.0    0.000    0.000    2.668    2.953
 cp_fm_start_copy_general             2  9.0    0.001    0.001    2.667    2.952
 mp_allgather_i                       4 10.0    2.666    2.950    2.666    2.950
 potential_pw2rs                     11  9.8    0.002    0.003    2.942    2.948
 GW3c_fill_mat                        1 11.0    0.122    1.379    0.274    2.934
 dbcsr_trace_a_b_d                  498  9.9    0.008    0.042    0.870    2.812
 compute_self_energy_im_time_gw     238  9.0    0.001    0.001    0.842    2.786
 rs_pw_transfer_RS2PW_200            23  9.8    0.820    1.031    2.511    2.778
 x_to_yz                             96 14.1    0.784    0.949    2.129    2.586
 rs_pw_transfer_PW2RS_200            23 10.7    1.001    1.240    2.167    2.575
 make_m2s                          1566 10.9    0.036    0.039    1.965    2.326
 calculate_vxc_atom                  11  7.8    0.036    0.388    2.320    2.320
 put_rho0_on_grid                    11  8.8    0.019    0.022    2.169    2.250
 -------------------------------------------------------------------------------

 The number of warnings for this run is : 3
 
 -------------------------------------------------------------------------------
  **** **** ******  **  PROGRAM ENDED AT                 2019-05-31 08:59:22.046
 ***** ** ***  *** **   PROGRAM RAN ON                                    tcopt4
 **    ****   ******    PROGRAM RAN BY                                   wilhelm
 ***** **    ** ** **   PROGRAM PROCESS ID                                 23776
  **** **  *******  **  PROGRAM STOPPED IN /data/wilhelm/2_job_test/11_GW100/3_c
                                           alcs/25_C2H2
