 DBCSR| CPU Multiplication driver                                           BLAS
 DBCSR| Multrec recursion limit                                              512
 DBCSR| Multiplication stack size                                           1000
 DBCSR| Maximum elements for images                                    UNLIMITED
 DBCSR| Multiplicative factor virtual images                                   1
 DBCSR| Use multiplication densification                                       T
 DBCSR| Multiplication size stacks                                             3
 DBCSR| Number of 3D layers                                               SINGLE
 DBCSR| Use MPI memory allocation                                              T
 DBCSR| Use RMA algorithm                                                      F
 DBCSR| Use Communication thread                                               T
 DBCSR| Communication thread load                                             87


  **** **** ******  **  PROGRAM STARTED AT               2019-06-07 07:40:18.520
 ***** ** ***  *** **   PROGRAM STARTED ON                                tcopt4
 **    ****   ******    PROGRAM STARTED BY                               wilhelm
 ***** **    ** ** **   PROGRAM PROCESS ID                                 59385
  **** **  *******  **  PROGRAM STARTED IN /data/wilhelm/2_job_test/11_GW100/3_c
                                           alcs/58_BF

 CP2K| version string:                    CP2K version 7.0 (Development Version)
 CP2K| source code revision number:                                  git:bc2813a
 CP2K| cp2kflags: libint fftw3 libxc pexsi elpa=201705 parallel mpi3 scalapack q
 CP2K|            uip libderiv_max_am1=5 libint_max_am=6
 CP2K| is freely available from                            https://www.cp2k.org/
 CP2K| Program compiled at                         Sun Jun  2 14:38:23 CEST 2019
 CP2K| Program compiled on                                                tcopt4
 CP2K| Program compiled for                            local_valgrind_March_2019
 CP2K| Data directory path              /data/wilhelm/1_git_repository/cp2k/data
 CP2K| Input file name                                                    GW.inp

 GLOBAL| Force Environment number                                              1
 GLOBAL| Basis set file name                              BASIS_def2_QZVP_RI_ALL
 GLOBAL| Potential file name                                           POTENTIAL
 GLOBAL| MM Potential file name                                     MM_POTENTIAL
 GLOBAL| Coordinate file name                                          58_BF.xyz
 GLOBAL| Method name                                                        CP2K
 GLOBAL| Project name                                                   ALL_ELEC
 GLOBAL| Preferred FFT library                                             FFTW3
 GLOBAL| Preferred diagonalization lib.                                       SL
 GLOBAL| Run type                                                         ENERGY
 GLOBAL| All-to-all communication in single precision                          F
 GLOBAL| FFTs using library dependent lengths                                  F
 GLOBAL| Global print level                                               MEDIUM
 GLOBAL| MPI I/O enabled                                                       T
 GLOBAL| Total number of message passing processes                            24
 GLOBAL| Number of threads for this process                                    1
 GLOBAL| This output is from process                                           0
 GLOBAL| CPU model name :  Intel(R) Xeon(R) CPU E5-2697 v3 @ 2.60GHz

 MEMORY| system memory details [Kb]
 MEMORY|                        rank 0           min           max       average
 MEMORY| MemTotal            396954008     396954008     396954008     396954008
 MEMORY| MemFree             347768804     347768804     347768804     347768804
 MEMORY| Buffers                281764        281764        281764        281764
 MEMORY| Cached               34682768      34682768      34682768      34682768
 MEMORY| Slab                  1203900       1203900       1203900       1203900
 MEMORY| SReclaimable          1061836       1061836       1061836       1061836
 MEMORY| MemLikelyFree       383795172     383795172     383795172     383795172


 *** Fundamental physical constants (SI units) ***

 *** Literature: B. J. Mohr and B. N. Taylor,
 ***             CODATA recommended values of the fundamental physical
 ***             constants: 2006, Web Version 5.1
 ***             http://physics.nist.gov/constants

 Speed of light in vacuum [m/s]                             2.99792458000000E+08
 Magnetic constant or permeability of vacuum [N/A**2]       1.25663706143592E-06
 Electric constant or permittivity of vacuum [F/m]          8.85418781762039E-12
 Planck constant (h) [J*s]                                  6.62606896000000E-34
 Planck constant (h-bar) [J*s]                              1.05457162825177E-34
 Elementary charge [C]                                      1.60217648700000E-19
 Electron mass [kg]                                         9.10938215000000E-31
 Electron g factor [ ]                                     -2.00231930436220E+00
 Proton mass [kg]                                           1.67262163700000E-27
 Fine-structure constant                                    7.29735253760000E-03
 Rydberg constant [1/m]                                     1.09737315685270E+07
 Avogadro constant [1/mol]                                  6.02214179000000E+23
 Boltzmann constant [J/K]                                   1.38065040000000E-23
 Atomic mass unit [kg]                                      1.66053878200000E-27
 Bohr radius [m]                                            5.29177208590000E-11

 *** Conversion factors ***

 [u] -> [a.u.]                                              1.82288848426455E+03
 [Angstrom] -> [Bohr] = [a.u.]                              1.88972613288564E+00
 [a.u.] = [Bohr] -> [Angstrom]                              5.29177208590000E-01
 [a.u.] -> [s]                                              2.41888432650478E-17
 [a.u.] -> [fs]                                             2.41888432650478E-02
 [a.u.] -> [J]                                              4.35974393937059E-18
 [a.u.] -> [N]                                              8.23872205491840E-08
 [a.u.] -> [K]                                              3.15774647902944E+05
 [a.u.] -> [kJ/mol]                                         2.62549961709828E+03
 [a.u.] -> [kcal/mol]                                       6.27509468713739E+02
 [a.u.] -> [Pa]                                             2.94210107994716E+13
 [a.u.] -> [bar]                                            2.94210107994716E+08
 [a.u.] -> [atm]                                            2.90362800883016E+08
 [a.u.] -> [eV]                                             2.72113838565563E+01
 [a.u.] -> [Hz]                                             6.57968392072181E+15
 [a.u.] -> [1/cm] (wave numbers)                            2.19474631370540E+05
 [a.u./Bohr**2] -> [1/cm]                                   5.14048714338585E+03
 

 CELL_TOP| Volume [angstrom^3]:                                         4096.000
 CELL_TOP| Vector a [angstrom    16.000     0.000     0.000    |a| =      16.000
 CELL_TOP| Vector b [angstrom     0.000    16.000     0.000    |b| =      16.000
 CELL_TOP| Vector c [angstrom     0.000     0.000    16.000    |c| =      16.000
 CELL_TOP| Angle (b,c), alpha [degree]:                                   90.000
 CELL_TOP| Angle (a,c), beta  [degree]:                                   90.000
 CELL_TOP| Angle (a,b), gamma [degree]:                                   90.000
 CELL_TOP| Numerically orthorhombic:                                         YES

 GENERATE|  Preliminary Number of Bonds generated:                             0
 GENERATE|  Achieved consistency in connectivity generation.

 CELL| Volume [angstrom^3]:                                             4096.000
 CELL| Vector a [angstrom]:      16.000     0.000     0.000    |a| =      16.000
 CELL| Vector b [angstrom]:       0.000    16.000     0.000    |b| =      16.000
 CELL| Vector c [angstrom]:       0.000     0.000    16.000    |c| =      16.000
 CELL| Angle (b,c), alpha [degree]:                                       90.000
 CELL| Angle (a,c), beta  [degree]:                                       90.000
 CELL| Angle (a,b), gamma [degree]:                                       90.000
 CELL| Numerically orthorhombic:                                             YES

 CELL_REF| Volume [angstrom^3]:                                         4096.000
 CELL_REF| Vector a [angstrom    16.000     0.000     0.000    |a| =      16.000
 CELL_REF| Vector b [angstrom     0.000    16.000     0.000    |b| =      16.000
 CELL_REF| Vector c [angstrom     0.000     0.000    16.000    |c| =      16.000
 CELL_REF| Angle (b,c), alpha [degree]:                                   90.000
 CELL_REF| Angle (a,c), beta  [degree]:                                   90.000
 CELL_REF| Angle (a,b), gamma [degree]:                                   90.000
 CELL_REF| Numerically orthorhombic:                                         YES

 *******************************************************************************
 *******************************************************************************
 **                                                                           **
 **     #####                         ##              ##                      **
 **    ##   ##            ##          ##              ##                      **
 **   ##     ##                       ##            ######                    **
 **   ##     ##  ##   ##  ##   #####  ##  ##   ####   ##    #####    #####    **
 **   ##     ##  ##   ##  ##  ##      ## ##   ##      ##   ##   ##  ##   ##   **
 **   ##  ## ##  ##   ##  ##  ##      ####     ###    ##   ######   ######    **
 **    ##  ###   ##   ##  ##  ##      ## ##      ##   ##   ##       ##        **
 **     #######   #####   ##   #####  ##  ##  ####    ##    #####   ##        **
 **           ##                                                    ##        **
 **                                                                           **
 **                                                ... make the atoms dance   **
 **                                                                           **
 **            Copyright (C) by CP2K developers group (2000 - 2019)           **
 **                                                                           **
 *******************************************************************************

 DFT| Spin restricted Kohn-Sham (RKS) calculation                            RKS
 DFT| Multiplicity                                                             1
 DFT| Number of spin states                                                    1
 DFT| Charge                                                                   0
 DFT| Self-interaction correction (SIC)                                       NO
 DFT| Cutoffs: density                                              1.000000E-10
 DFT|          gradient                                             1.000000E-10
 DFT|          tau                                                  1.000000E-10
 DFT|          cutoff_smoothing_range                               0.000000E+00
 DFT| XC density smoothing                                                  NONE
 DFT| XC derivatives                                                          PW
 FUNCTIONAL| ROUTINE=NEW
 FUNCTIONAL| PBE:
 FUNCTIONAL| J.P.Perdew, K.Burke, M.Ernzerhof, Phys. Rev. Letter, vol. 77, n 18,
 FUNCTIONAL|  pp. 3865-3868, (1996){spin unpolarized}                           

 QS| Method:                                                                GAPW
 QS| Density plane wave grid type                        NON-SPHERICAL FULLSPACE
 QS| Number of grid levels:                                                    4
 QS| Density cutoff [a.u.]:                                                200.0
 QS| Multi grid cutoff [a.u.]: 1) grid level                               200.0
 QS|                           2) grid level                                66.7
 QS|                           3) grid level                                22.2
 QS|                           4) grid level                                 7.4
 QS| Grid level progression factor:                                          3.0
 QS| Relative density cutoff [a.u.]:                                        25.0
 QS| Consistent realspace mapping and integration 
 QS| Interaction thresholds: eps_pgf_orb:                                1.0E-05
 QS|                         eps_filter_matrix:                          0.0E+00
 QS|                         eps_core_charge:                            1.0E-12
 QS|                         eps_rho_gspace:                             1.0E-10
 QS|                         eps_rho_rspace:                             1.0E-10
 QS|                         eps_gvg_rspace:                             1.0E-05
 QS|                         eps_ppl:                                    1.0E-02
 QS|                         eps_ppnl:                                   1.0E-07
 QS| GAPW|                   eps_fit:                                    1.0E-04
 QS| GAPW|                   eps_iso:                                    1.0E-12
 QS| GAPW|                   eps_svd:                                    1.0E-08
 QS| GAPW|                   eps_cpc:                                    1.0E-10
 QS| GAPW|   atom-r-grid: quadrature:                 GC_LOG                        
 QS| GAPW|      atom-s-grid:  max l :                                          8
 QS| GAPW|      max_l_rho0 :                                                   2


 ATOMIC KIND INFORMATION

  1. Atomic kind: B                                     Number of atoms:       1

     Orbital Basis Set                                                 def2-QZVP

       Number of orbital shell sets:                                          17
       Number of orbital shells:                                              17
       Number of primitive Cartesian functions:                               29
       Number of Cartesian basis functions:                                   72
       Number of spherical basis functions:                                   57
       Norm type:                                                              2

       Normalised Cartesian orbitals:

                        Set   Shell   Orbital            Exponent    Coefficient

                          1       1    1s            46447.667056       0.160652
                                                      6957.688904       0.300649
                                                      1583.442840       0.519457
                                                       448.466010       0.844001
                                                       146.286393       1.287379
                                                        52.784386       1.803207
                                                        20.519396       2.183115
                                                         8.418566       2.086207

                          2       1    1s               36.510018       0.982622
                                                        10.541854       3.867338

                          3       1    1s                3.600409       1.862833

                          4       1    1s                1.561702       0.995655

                          5       1    1s                0.449974       0.391562

                          6       1    1s                0.180752       0.197571

                          7       1    1s                0.071597       0.098646

                          8       1    1px              72.240463       0.711083
                                                        16.807707       0.912991
                                                         5.225941       0.954933
                                                         1.850835       0.878667
                                                         0.722068       0.679455
                          8       1    1py              72.240463       0.711083
                                                        16.807707       0.912991
                                                         5.225941       0.954933
                                                         1.850835       0.878667
                                                         0.722068       0.679455
                          8       1    1pz              72.240463       0.711083
                                                        16.807707       0.912991
                                                         5.225941       0.954933
                                                         1.850835       0.878667
                                                         0.722068       0.679455

                          9       1    1px               0.294910       0.309779
                          9       1    1py               0.294910       0.309779
                          9       1    1pz               0.294910       0.309779

                         10       1    1px               0.122011       0.102788
                         10       1    1py               0.122011       0.102788
                         10       1    1pz               0.122011       0.102788

                         11       1    1px               0.049865       0.033588
                         11       1    1py               0.049865       0.033588
                         11       1    1pz               0.049865       0.033588

                         12       1    1dx2              1.110000       1.975717
                         12       1    1dxy              1.110000       3.422042
                         12       1    1dxz              1.110000       3.422042
                         12       1    1dy2              1.110000       1.975717
                         12       1    1dyz              1.110000       3.422042
                         12       1    1dz2              1.110000       1.975717

                         13       1    1dx2              0.402000       0.334045
                         13       1    1dxy              0.402000       0.578583
                         13       1    1dxz              0.402000       0.578583
                         13       1    1dy2              0.402000       0.334045
                         13       1    1dyz              0.402000       0.578583
                         13       1    1dz2              0.402000       0.334045

                         14       1    1dx2              0.145000       0.056079
                         14       1    1dxy              0.145000       0.097132
                         14       1    1dxz              0.145000       0.097132
                         14       1    1dy2              0.145000       0.056079
                         14       1    1dyz              0.145000       0.097132
                         14       1    1dz2              0.145000       0.056079

                         15       1    1fx3              0.882000       1.109836
                         15       1    1fx2y             0.882000       2.481669
                         15       1    1fx2z             0.882000       2.481669
                         15       1    1fxy2             0.882000       2.481669
                         15       1    1fxyz             0.882000       4.298376
                         15       1    1fxz2             0.882000       2.481669
                         15       1    1fy3              0.882000       1.109836
                         15       1    1fy2z             0.882000       2.481669
                         15       1    1fyz2             0.882000       2.481669
                         15       1    1fz3              0.882000       1.109836

                         16       1    1fx3              0.311000       0.106332
                         16       1    1fx2y             0.311000       0.237766
                         16       1    1fx2z             0.311000       0.237766
                         16       1    1fxy2             0.311000       0.237766
                         16       1    1fxyz             0.311000       0.411823
                         16       1    1fxz2             0.311000       0.237766
                         16       1    1fy3              0.311000       0.106332
                         16       1    1fy2z             0.311000       0.237766
                         16       1    1fyz2             0.311000       0.237766
                         16       1    1fz3              0.311000       0.106332

                         17       1    1gx4              0.673000       0.374522
                         17       1    1gx3y             0.673000       0.990891
                         17       1    1gx3z             0.673000       0.990891
                         17       1    1gx2y2            0.673000       1.279235
                         17       1    1gx2yz            0.673000       2.215700
                         17       1    1gx2z2            0.673000       1.279235
                         17       1    1gxy3             0.673000       0.990891
                         17       1    1gxy2z            0.673000       2.215700
                         17       1    1gxyz2            0.673000       2.215700
                         17       1    1gxz3             0.673000       0.990891
                         17       1    1gy4              0.673000       0.374522
                         17       1    1gy3z             0.673000       0.990891
                         17       1    1gy2z2            0.673000       1.279235
                         17       1    1gyz3             0.673000       0.990891
                         17       1    1gz4              0.673000       0.374522

     RI Auxiliary Basis Set                                                RI-5Z

       Number of orbital shell sets:                                          39
       Number of orbital shells:                                              39
       Number of primitive Cartesian functions:                               39
       Number of Cartesian basis functions:                                  287
       Number of spherical basis functions:                                  193
       Norm type:                                                              2

       Normalised Cartesian orbitals:

                        Set   Shell   Orbital            Exponent    Coefficient

                          1       1    1s              142.715000      29.428106

                          2       1    1s               34.757300      10.202218

                          3       1    1s                9.063320       3.722850

                          4       1    1s                4.124940       2.062877

                          5       1    1s                2.103280       1.244752

                          6       1    1s                1.043310       0.735733

                          7       1    1s                0.591867       0.480926

                          8       1    1s                0.387495       0.350034

                          9       1    1s                0.193579       0.207995

                         10       1    1s                0.100115       0.126848

                         11       1    1px              36.802300     129.206330
                         11       1    1py              36.802300     129.206330
                         11       1    1pz              36.802300     129.206330

                         12       1    1px               9.892560      25.007827
                         12       1    1py               9.892560      25.007827
                         12       1    1pz               9.892560      25.007827

                         13       1    1px               3.548920       6.943211
                         13       1    1py               3.548920       6.943211
                         13       1    1pz               3.548920       6.943211

                         14       1    1px               1.677110       2.720458
                         14       1    1py               1.677110       2.720458
                         14       1    1pz               1.677110       2.720458

                         15       1    1px               0.926420       1.295538
                         15       1    1py               0.926420       1.295538
                         15       1    1pz               0.926420       1.295538

                         16       1    1px               0.445473       0.518760
                         16       1    1py               0.445473       0.518760
                         16       1    1pz               0.445473       0.518760

                         17       1    1px               0.248681       0.250319
                         17       1    1py               0.248681       0.250319
                         17       1    1pz               0.248681       0.250319

                         18       1    1px               0.140195       0.122280
                         18       1    1py               0.140195       0.122280
                         18       1    1pz               0.140195       0.122280

                         19       1    1dx2             10.808500     106.047138
                         19       1    1dxy             10.808500     183.679031
                         19       1    1dxz             10.808500     183.679031
                         19       1    1dy2             10.808500     106.047138
                         19       1    1dyz             10.808500     183.679031
                         19       1    1dz2             10.808500     106.047138

                         20       1    1dx2              4.554610      23.372171
                         20       1    1dxy              4.554610      40.481787
                         20       1    1dxz              4.554610      40.481787
                         20       1    1dy2              4.554610      23.372171
                         20       1    1dyz              4.554610      40.481787
                         20       1    1dz2              4.554610      23.372171

                         21       1    1dx2              2.202870       6.556016
                         21       1    1dxy              2.202870      11.355352
                         21       1    1dxz              2.202870      11.355352
                         21       1    1dy2              2.202870       6.556016
                         21       1    1dyz              2.202870      11.355352
                         21       1    1dz2              2.202870       6.556016

                         22       1    1dx2              1.056650       1.812546
                         22       1    1dxy              1.056650       3.139421
                         22       1    1dxz              1.056650       3.139421
                         22       1    1dy2              1.056650       1.812546
                         22       1    1dyz              1.056650       3.139421
                         22       1    1dz2              1.056650       1.812546

                         23       1    1dx2              0.495164       0.481083
                         23       1    1dxy              0.495164       0.833261
                         23       1    1dxz              0.495164       0.833261
                         23       1    1dy2              0.495164       0.481083
                         23       1    1dyz              0.495164       0.833261
                         23       1    1dz2              0.495164       0.481083

                         24       1    1dx2              0.264649       0.160725
                         24       1    1dxy              0.264649       0.278383
                         24       1    1dxz              0.264649       0.278383
                         24       1    1dy2              0.264649       0.160725
                         24       1    1dyz              0.264649       0.278383
                         24       1    1dz2              0.264649       0.160725

                         25       1    1dx2              0.165073       0.070363
                         25       1    1dxy              0.165073       0.121872
                         25       1    1dxz              0.165073       0.121872
                         25       1    1dy2              0.165073       0.070363
                         25       1    1dyz              0.165073       0.121872
                         25       1    1dz2              0.165073       0.070363

                         26       1    1fx3              4.908970      52.805943
                         26       1    1fx2y             4.908970     118.077678
                         26       1    1fx2z             4.908970     118.077678
                         26       1    1fxy2             4.908970     118.077678
                         26       1    1fxyz             4.908970     204.516537
                         26       1    1fxz2             4.908970     118.077678
                         26       1    1fy3              4.908970      52.805943
                         26       1    1fy2z             4.908970     118.077678
                         26       1    1fyz2             4.908970     118.077678
                         26       1    1fz3              4.908970      52.805943

                         27       1    1fx3              2.483560      11.399149
                         27       1    1fx2y             2.483560      25.489272
                         27       1    1fx2z             2.483560      25.489272
                         27       1    1fxy2             2.483560      25.489272
                         27       1    1fxyz             2.483560      44.148714
                         27       1    1fxz2             2.483560      25.489272
                         27       1    1fy3              2.483560      11.399149
                         27       1    1fy2z             2.483560      25.489272
                         27       1    1fyz2             2.483560      25.489272
                         27       1    1fz3              2.483560      11.399149

                         28       1    1fx3              1.421170       3.246445
                         28       1    1fx2y             1.421170       7.259271
                         28       1    1fx2z             1.421170       7.259271
                         28       1    1fxy2             1.421170       7.259271
                         28       1    1fxyz             1.421170      12.573427
                         28       1    1fxz2             1.421170       7.259271
                         28       1    1fy3              1.421170       3.246445
                         28       1    1fy2z             1.421170       7.259271
                         28       1    1fyz2             1.421170       7.259271
                         28       1    1fz3              1.421170       3.246445

                         29       1    1fx3              0.724300       0.712477
                         29       1    1fx2y             0.724300       1.593148
                         29       1    1fx2z             0.724300       1.593148
                         29       1    1fxy2             0.724300       1.593148
                         29       1    1fxyz             0.724300       2.759413
                         29       1    1fxz2             0.724300       1.593148
                         29       1    1fy3              0.724300       0.712477
                         29       1    1fy2z             0.724300       1.593148
                         29       1    1fyz2             0.724300       1.593148
                         29       1    1fz3              0.724300       0.712477

                         30       1    1fx3              0.398860       0.186123
                         30       1    1fx2y             0.398860       0.416184
                         30       1    1fx2z             0.398860       0.416184
                         30       1    1fxy2             0.398860       0.416184
                         30       1    1fxyz             0.398860       0.720852
                         30       1    1fxz2             0.398860       0.416184
                         30       1    1fy3              0.398860       0.186123
                         30       1    1fy2z             0.398860       0.416184
                         30       1    1fyz2             0.398860       0.416184
                         30       1    1fz3              0.398860       0.186123

                         31       1    1fx3              0.242397       0.060693
                         31       1    1fx2y             0.242397       0.135714
                         31       1    1fx2z             0.242397       0.135714
                         31       1    1fxy2             0.242397       0.135714
                         31       1    1fxyz             0.242397       0.235064
                         31       1    1fxz2             0.242397       0.135714
                         31       1    1fy3              0.242397       0.060693
                         31       1    1fy2z             0.242397       0.135714
                         31       1    1fyz2             0.242397       0.135714
                         31       1    1fz3              0.242397       0.060693

                         32       1    1gx4              3.560170      36.557791
                         32       1    1gx3y             3.560170      96.722824
                         32       1    1gx3z             3.560170      96.722824
                         32       1    1gx2y2            3.560170     124.868629
                         32       1    1gx2yz            3.560170     216.278810
                         32       1    1gx2z2            3.560170     124.868629
                         32       1    1gxy3             3.560170      96.722824
                         32       1    1gxy2z            3.560170     216.278810
                         32       1    1gxyz2            3.560170     216.278810
                         32       1    1gxz3             3.560170      96.722824
                         32       1    1gy4              3.560170      36.557791
                         32       1    1gy3z             3.560170      96.722824
                         32       1    1gy2z2            3.560170     124.868629
                         32       1    1gyz3             3.560170      96.722824
                         32       1    1gz4              3.560170      36.557791

                         33       1    1gx4              1.364190       2.614215
                         33       1    1gx3y             1.364190       6.916563
                         33       1    1gx3z             1.364190       6.916563
                         33       1    1gx2y2            1.364190       8.929244
                         33       1    1gx2yz            1.364190      15.465904
                         33       1    1gx2z2            1.364190       8.929244
                         33       1    1gxy3             1.364190       6.916563
                         33       1    1gxy2z            1.364190      15.465904
                         33       1    1gxyz2            1.364190      15.465904
                         33       1    1gxz3             1.364190       6.916563
                         33       1    1gy4              1.364190       2.614215
                         33       1    1gy3z             1.364190       6.916563
                         33       1    1gy2z2            1.364190       8.929244
                         33       1    1gyz3             1.364190       6.916563
                         33       1    1gz4              1.364190       2.614215

                         34       1    1gx4              0.662307       0.358384
                         34       1    1gx3y             0.662307       0.948195
                         34       1    1gx3z             0.662307       0.948195
                         34       1    1gx2y2            0.662307       1.224114
                         34       1    1gx2yz            0.662307       2.120228
                         34       1    1gx2z2            0.662307       1.224114
                         34       1    1gxy3             0.662307       0.948195
                         34       1    1gxy2z            0.662307       2.120228
                         34       1    1gxyz2            0.662307       2.120228
                         34       1    1gxz3             0.662307       0.948195
                         34       1    1gy4              0.662307       0.358384
                         34       1    1gy3z             0.662307       0.948195
                         34       1    1gy2z2            0.662307       1.224114
                         34       1    1gyz3             0.662307       0.948195
                         34       1    1gz4              0.662307       0.358384

                         35       1    1gx4              0.393770       0.085773
                         35       1    1gx3y             0.393770       0.226935
                         35       1    1gx3z             0.393770       0.226935
                         35       1    1gx2y2            0.393770       0.292972
                         35       1    1gx2yz            0.393770       0.507442
                         35       1    1gx2z2            0.393770       0.292972
                         35       1    1gxy3             0.393770       0.226935
                         35       1    1gxy2z            0.393770       0.507442
                         35       1    1gxyz2            0.393770       0.507442
                         35       1    1gxz3             0.393770       0.226935
                         35       1    1gy4              0.393770       0.085773
                         35       1    1gy3z             0.393770       0.226935
                         35       1    1gy2z2            0.393770       0.292972
                         35       1    1gyz3             0.393770       0.226935
                         35       1    1gz4              0.393770       0.085773

                         36       1    1hx5              1.852370       5.501224
                         36       1    1hx4y             1.852370      16.503672
                         36       1    1hx4z             1.852370      16.503672
                         36       1    1hx3y2            1.852370      25.209775
                         36       1    1hx3yz            1.852370      43.664611
                         36       1    1hx3z2            1.852370      25.209775
                         36       1    1hx2y3            1.852370      25.209775
                         36       1    1hx2y2z           1.852370      56.370770
                         36       1    1hx2yz2           1.852370      56.370770
                         36       1    1hx2z3            1.852370      25.209775
                         36       1    1hxy4             1.852370      16.503672
                         36       1    1hxy3z            1.852370      43.664611
                         36       1    1hxy2z2           1.852370      56.370770
                         36       1    1hxyz3            1.852370      43.664611
                         36       1    1hxz4             1.852370      16.503672
                         36       1    1hy5              1.852370       5.501224
                         36       1    1hy4z             1.852370      16.503672
                         36       1    1hy3z2            1.852370      25.209775
                         36       1    1hy2z3            1.852370      25.209775
                         36       1    1hyz4             1.852370      16.503672
                         36       1    1hz5              1.852370       5.501224

                         37       1    1hx5              0.994333       0.728321
                         37       1    1hx4y             0.994333       2.184962
                         37       1    1hx4z             0.994333       2.184962
                         37       1    1hx3y2            0.994333       3.337585
                         37       1    1hx3yz            0.994333       5.780867
                         37       1    1hx3z2            0.994333       3.337585
                         37       1    1hx2y3            0.994333       3.337585
                         37       1    1hx2y2z           0.994333       7.463067
                         37       1    1hx2yz2           0.994333       7.463067
                         37       1    1hx2z3            0.994333       3.337585
                         37       1    1hxy4             0.994333       2.184962
                         37       1    1hxy3z            0.994333       5.780867
                         37       1    1hxy2z2           0.994333       7.463067
                         37       1    1hxyz3            0.994333       5.780867
                         37       1    1hxz4             0.994333       2.184962
                         37       1    1hy5              0.994333       0.728321
                         37       1    1hy4z             0.994333       2.184962
                         37       1    1hy3z2            0.994333       3.337585
                         37       1    1hy2z3            0.994333       3.337585
                         37       1    1hyz4             0.994333       2.184962
                         37       1    1hz5              0.994333       0.728321

                         38       1    1hx5              0.625900       0.161803
                         38       1    1hx4y             0.625900       0.485408
                         38       1    1hx4z             0.625900       0.485408
                         38       1    1hx3y2            0.625900       0.741472
                         38       1    1hx3yz            0.625900       1.284268
                         38       1    1hx3z2            0.625900       0.741472
                         38       1    1hx2y3            0.625900       0.741472
                         38       1    1hx2y2z           0.625900       1.657982
                         38       1    1hx2yz2           0.625900       1.657982
                         38       1    1hx2z3            0.625900       0.741472
                         38       1    1hxy4             0.625900       0.485408
                         38       1    1hxy3z            0.625900       1.284268
                         38       1    1hxy2z2           0.625900       1.657982
                         38       1    1hxyz3            0.625900       1.284268
                         38       1    1hxz4             0.625900       0.485408
                         38       1    1hy5              0.625900       0.161803
                         38       1    1hy4z             0.625900       0.485408
                         38       1    1hy3z2            0.625900       0.741472
                         38       1    1hy2z3            0.625900       0.741472
                         38       1    1hyz4             0.625900       0.485408
                         38       1    1hz5              0.625900       0.161803

                         39       1    1ix6              1.130180       0.707915
                         39       1    1ix5y             1.130180       2.347890
                         39       1    1ix5z             1.130180       2.347890
                         39       1    1ix4y2            1.130180       4.066665
                         39       1    1ix4yz            1.130180       7.043670
                         39       1    1ix4z2            1.130180       4.066665
                         39       1    1ix3y3            1.130180       4.811742
                         39       1    1ix3y2z           1.130180      10.759383
                         39       1    1ix3yz2           1.130180      10.759383
                         39       1    1ix3z3            1.130180       4.811742
                         39       1    1ix2y4            1.130180       4.066665
                         39       1    1ix2y3z           1.130180      10.759383
                         39       1    1ix2y2z2          1.130180      13.890304
                         39       1    1ix2yz3           1.130180      10.759383
                         39       1    1ix2z4            1.130180       4.066665
                         39       1    1ixy5             1.130180       2.347890
                         39       1    1ixy4z            1.130180       7.043670
                         39       1    1ixy3z2           1.130180      10.759383
                         39       1    1ixy2z3           1.130180      10.759383
                         39       1    1ixyz4            1.130180       7.043670
                         39       1    1ixz5             1.130180       2.347890
                         39       1    1iy6              1.130180       0.707915
                         39       1    1iy5z             1.130180       2.347890
                         39       1    1iy4z2            1.130180       4.066665
                         39       1    1iy3z3            1.130180       4.811742
                         39       1    1iy2z4            1.130180       4.066665
                         39       1    1iyz5             1.130180       2.347890
                         39       1    1iz6              1.130180       0.707915

     The atoms of this atomic kind are PAW atoms (GAPW):
       Hard Gaussian function radius:                                      1.512
       Rho0 radius:                                                        1.512
       Maximum GTO radius used for PAW projector construction:            24.566

     GAPW Soft Basis Set                                          def2-QZVP_soft

       Number of orbital shell sets:                                          17
       Number of orbital shells:                                              17
       Number of primitive Cartesian functions:                               16
       Number of Cartesian basis functions:                                   72
       Number of spherical basis functions:                                   57
       Norm type:                                                              2

       Normalised Cartesian orbitals:

                        Set   Shell   Orbital            Exponent    Coefficient

                          1       1    1s         

                          2       1    1s         

                          3       1    1s                3.600409       1.862833

                          4       1    1s                1.561702       0.995655

                          5       1    1s                0.449974       0.391562

                          6       1    1s                0.180752       0.197571

                          7       1    1s                0.071597       0.098646

                          8       1    1px               1.850835       0.878667
                                                         0.722068       0.679455
                          8       1    1py               1.850835       0.878667
                                                         0.722068       0.679455
                          8       1    1pz               1.850835       0.878667
                                                         0.722068       0.679455

                          9       1    1px               0.294910       0.309779
                          9       1    1py               0.294910       0.309779
                          9       1    1pz               0.294910       0.309779

                         10       1    1px               0.122011       0.102788
                         10       1    1py               0.122011       0.102788
                         10       1    1pz               0.122011       0.102788

                         11       1    1px               0.049865       0.033588
                         11       1    1py               0.049865       0.033588
                         11       1    1pz               0.049865       0.033588

                         12       1    1dx2              1.110000       1.975717
                         12       1    1dxy              1.110000       3.422042
                         12       1    1dxz              1.110000       3.422042
                         12       1    1dy2              1.110000       1.975717
                         12       1    1dyz              1.110000       3.422042
                         12       1    1dz2              1.110000       1.975717

                         13       1    1dx2              0.402000       0.334045
                         13       1    1dxy              0.402000       0.578583
                         13       1    1dxz              0.402000       0.578583
                         13       1    1dy2              0.402000       0.334045
                         13       1    1dyz              0.402000       0.578583
                         13       1    1dz2              0.402000       0.334045

                         14       1    1dx2              0.145000       0.056079
                         14       1    1dxy              0.145000       0.097132
                         14       1    1dxz              0.145000       0.097132
                         14       1    1dy2              0.145000       0.056079
                         14       1    1dyz              0.145000       0.097132
                         14       1    1dz2              0.145000       0.056079

                         15       1    1fx3              0.882000       1.109836
                         15       1    1fx2y             0.882000       2.481669
                         15       1    1fx2z             0.882000       2.481669
                         15       1    1fxy2             0.882000       2.481669
                         15       1    1fxyz             0.882000       4.298376
                         15       1    1fxz2             0.882000       2.481669
                         15       1    1fy3              0.882000       1.109836
                         15       1    1fy2z             0.882000       2.481669
                         15       1    1fyz2             0.882000       2.481669
                         15       1    1fz3              0.882000       1.109836

                         16       1    1fx3              0.311000       0.106332
                         16       1    1fx2y             0.311000       0.237766
                         16       1    1fx2z             0.311000       0.237766
                         16       1    1fxy2             0.311000       0.237766
                         16       1    1fxyz             0.311000       0.411823
                         16       1    1fxz2             0.311000       0.237766
                         16       1    1fy3              0.311000       0.106332
                         16       1    1fy2z             0.311000       0.237766
                         16       1    1fyz2             0.311000       0.237766
                         16       1    1fz3              0.311000       0.106332

                         17       1    1gx4              0.673000       0.374522
                         17       1    1gx3y             0.673000       0.990891
                         17       1    1gx3z             0.673000       0.990891
                         17       1    1gx2y2            0.673000       1.279235
                         17       1    1gx2yz            0.673000       2.215700
                         17       1    1gx2z2            0.673000       1.279235
                         17       1    1gxy3             0.673000       0.990891
                         17       1    1gxy2z            0.673000       2.215700
                         17       1    1gxyz2            0.673000       2.215700
                         17       1    1gxz3             0.673000       0.990891
                         17       1    1gy4              0.673000       0.374522
                         17       1    1gy3z             0.673000       0.990891
                         17       1    1gy2z2            0.673000       1.279235
                         17       1    1gyz3             0.673000       0.990891
                         17       1    1gz4              0.673000       0.374522

     AE Potential information for                                            ALL

       Description:                                       All-electron potential
                                          Krack, Parrinello, PCCP 2, 2105 (2000)

       Gaussian exponent of the core charge distribution:               2.655410
       Electronic configuration (s p d ...):                           4   1   0

  2. Atomic kind: F                                     Number of atoms:       1

     Orbital Basis Set                                                 def2-QZVP

       Number of orbital shell sets:                                          17
       Number of orbital shells:                                              17
       Number of primitive Cartesian functions:                               29
       Number of Cartesian basis functions:                                   72
       Number of spherical basis functions:                                   57
       Norm type:                                                              2

       Normalised Cartesian orbitals:

                        Set   Shell   Orbital            Exponent    Coefficient

                          1       1    1s           132535.973450       0.386108
                                                     19758.112588       0.724649
                                                      4485.199695       1.250455
                                                      1273.815102       2.015188
                                                       418.938312       3.040568
                                                       152.557220       4.212686
                                                        59.821525       5.009443
                                                        24.819077       4.546938

                          2       1    1s              100.744467       2.325033
                                                        30.103728       8.414408

                          3       1    1s               10.814283       4.250191

                          4       1    1s                4.817289       2.317459

                          5       1    1s                1.655933       1.040381

                          6       1    1s                0.648935       0.515301

                          7       1    1s                0.247781       0.250300

                          8       1    1px             240.966541       3.491668
                                                        57.020700       4.618861
                                                        18.126952       5.179649
                                                         6.645740       4.786262
                                                         2.637572       3.245784
                          8       1    1py             240.966541       3.491668
                                                        57.020700       4.618861
                                                        18.126952       5.179649
                                                         6.645740       4.786262
                                                         2.637572       3.245784
                          8       1    1pz             240.966541       3.491668
                                                        57.020700       4.618861
                                                        18.126952       5.179649
                                                         6.645740       4.786262
                                                         2.637572       3.245784

                          9       1    1px               1.063822       1.540019
                          9       1    1py               1.063822       1.540019
                          9       1    1pz               1.063822       1.540019

                         10       1    1px               0.419326       0.480983
                         10       1    1py               0.419326       0.480983
                         10       1    1pz               0.419326       0.480983

                         11       1    1px               0.157476       0.141403
                         11       1    1py               0.157476       0.141403
                         11       1    1pz               0.157476       0.141403

                         12       1    1dx2              5.014000      27.652349
                         12       1    1dxy              5.014000      47.895274
                         12       1    1dxz              5.014000      47.895274
                         12       1    1dy2              5.014000      27.652349
                         12       1    1dyz              5.014000      47.895274
                         12       1    1dz2              5.014000      27.652349

                         13       1    1dx2              1.725000       4.273566
                         13       1    1dxy              1.725000       7.402033
                         13       1    1dxz              1.725000       7.402033
                         13       1    1dy2              1.725000       4.273566
                         13       1    1dyz              1.725000       7.402033
                         13       1    1dz2              1.725000       4.273566

                         14       1    1dx2              0.586000       0.645997
                         14       1    1dxy              0.586000       1.118899
                         14       1    1dxz              0.586000       1.118899
                         14       1    1dy2              0.586000       0.645997
                         14       1    1dyz              0.586000       1.118899
                         14       1    1dz2              0.586000       0.645997

                         15       1    1fx3              3.562000      25.660538
                         15       1    1fx2y             3.562000      57.378707
                         15       1    1fx2z             3.562000      57.378707
                         15       1    1fxy2             3.562000      57.378707
                         15       1    1fxyz             3.562000      99.382837
                         15       1    1fxz2             3.562000      57.378707
                         15       1    1fy3              3.562000      25.660538
                         15       1    1fy2z             3.562000      57.378707
                         15       1    1fyz2             3.562000      57.378707
                         15       1    1fz3              3.562000      25.660538

                         16       1    1fx3              1.148000       2.008277
                         16       1    1fx2y             1.148000       4.490645
                         16       1    1fx2z             1.148000       4.490645
                         16       1    1fxy2             1.148000       4.490645
                         16       1    1fxyz             1.148000       7.778025
                         16       1    1fxz2             1.148000       4.490645
                         16       1    1fy3              1.148000       2.008277
                         16       1    1fy2z             1.148000       4.490645
                         16       1    1fyz2             1.148000       4.490645
                         16       1    1fz3              1.148000       2.008277

                         17       1    1gx4              2.376000      12.023008
                         17       1    1gx3y             2.376000      31.809888
                         17       1    1gx3z             2.376000      31.809888
                         17       1    1gx2y2            2.376000      41.066389
                         17       1    1gx2yz            2.376000      71.129073
                         17       1    1gx2z2            2.376000      41.066389
                         17       1    1gxy3             2.376000      31.809888
                         17       1    1gxy2z            2.376000      71.129073
                         17       1    1gxyz2            2.376000      71.129073
                         17       1    1gxz3             2.376000      31.809888
                         17       1    1gy4              2.376000      12.023008
                         17       1    1gy3z             2.376000      31.809888
                         17       1    1gy2z2            2.376000      41.066389
                         17       1    1gyz3             2.376000      31.809888
                         17       1    1gz4              2.376000      12.023008

     RI Auxiliary Basis Set                                                RI-5Z

       Number of orbital shell sets:                                          39
       Number of orbital shells:                                              39
       Number of primitive Cartesian functions:                               39
       Number of Cartesian basis functions:                                  287
       Number of spherical basis functions:                                  193
       Norm type:                                                              2

       Normalised Cartesian orbitals:

                        Set   Shell   Orbital            Exponent    Coefficient

                          1       1    1s              645.424000      91.262829

                          2       1    1s              138.618000      28.792198

                          3       1    1s               38.729500      11.064748

                          4       1    1s               21.723600       7.171482

                          5       1    1s                7.480350       3.223677

                          6       1    1s                4.284400       2.122402

                          7       1    1s                2.601990       1.460123

                          8       1    1s                1.340780       0.888031

                          9       1    1s                0.603875       0.488225

                         10       1    1s                0.299915       0.288841

                         11       1    1px             118.066000     554.748517
                         11       1    1py             118.066000     554.748517
                         11       1    1pz             118.066000     554.748517

                         12       1    1px              32.033700     108.629797
                         12       1    1py              32.033700     108.629797
                         12       1    1pz              32.033700     108.629797

                         13       1    1px              13.592500      37.201827
                         13       1    1py              13.592500      37.201827
                         13       1    1pz              13.592500      37.201827

                         14       1    1px               6.289910      14.198603
                         14       1    1py               6.289910      14.198603
                         14       1    1pz               6.289910      14.198603

                         15       1    1px               3.490790       6.801344
                         15       1    1py               3.490790       6.801344
                         15       1    1pz               3.490790       6.801344

                         16       1    1px               1.639320       2.644051
                         16       1    1py               1.639320       2.644051
                         16       1    1pz               1.639320       2.644051

                         17       1    1px               0.880017       1.214937
                         17       1    1py               0.880017       1.214937
                         17       1    1pz               0.880017       1.214937

                         18       1    1px               0.533003       0.649161
                         18       1    1py               0.533003       0.649161
                         18       1    1pz               0.533003       0.649161

                         19       1    1dx2             27.767600     552.842674
                         19       1    1dxy             27.767600     957.551601
                         19       1    1dxz             27.767600     957.551601
                         19       1    1dy2             27.767600     552.842674
                         19       1    1dyz             27.767600     957.551601
                         19       1    1dz2             27.767600     552.842674

                         20       1    1dx2              8.880760      75.196424
                         20       1    1dxy              8.880760     130.244027
                         20       1    1dxz              8.880760     130.244027
                         20       1    1dy2              8.880760      75.196424
                         20       1    1dyz              8.880760     130.244027
                         20       1    1dz2              8.880760      75.196424

                         21       1    1dx2              5.495020      32.460536
                         21       1    1dxy              5.495020      56.223298
                         21       1    1dxz              5.495020      56.223298
                         21       1    1dy2              5.495020      32.460536
                         21       1    1dyz              5.495020      56.223298
                         21       1    1dz2              5.495020      32.460536

                         22       1    1dx2              2.971120      11.066742
                         22       1    1dxy              2.971120      19.168160
                         22       1    1dxz              2.971120      19.168160
                         22       1    1dy2              2.971120      11.066742
                         22       1    1dyz              2.971120      19.168160
                         22       1    1dz2              2.971120      11.066742

                         23       1    1dx2              1.819720       4.692642
                         23       1    1dxy              1.819720       8.127895
                         23       1    1dxz              1.819720       8.127895
                         23       1    1dy2              1.819720       4.692642
                         23       1    1dyz              1.819720       8.127895
                         23       1    1dz2              1.819720       4.692642

                         24       1    1dx2              0.890528       1.343670
                         24       1    1dxy              0.890528       2.327305
                         24       1    1dxz              0.890528       2.327305
                         24       1    1dy2              0.890528       1.343670
                         24       1    1dyz              0.890528       2.327305
                         24       1    1dz2              0.890528       1.343670

                         25       1    1dx2              0.367580       0.285611
                         25       1    1dxy              0.367580       0.494693
                         25       1    1dxz              0.367580       0.494693
                         25       1    1dy2              0.367580       0.285611
                         25       1    1dyz              0.367580       0.494693
                         25       1    1dz2              0.367580       0.285611

                         26       1    1fx3             18.500300    1044.976886
                         26       1    1fx2y            18.500300    2336.639352
                         26       1    1fx2z            18.500300    2336.639352
                         26       1    1fxy2            18.500300    2336.639352
                         26       1    1fxyz            18.500300    4047.178077
                         26       1    1fxz2            18.500300    2336.639352
                         26       1    1fy3             18.500300    1044.976886
                         26       1    1fy2z            18.500300    2336.639352
                         26       1    1fyz2            18.500300    2336.639352
                         26       1    1fz3             18.500300    1044.976886

                         27       1    1fx3              8.608610     186.876105
                         27       1    1fx2y             8.608610     417.867675
                         27       1    1fx2z             8.608610     417.867675
                         27       1    1fxy2             8.608610     417.867675
                         27       1    1fxyz             8.608610     723.768044
                         27       1    1fxz2             8.608610     417.867675
                         27       1    1fy3              8.608610     186.876105
                         27       1    1fy2z             8.608610     417.867675
                         27       1    1fyz2             8.608610     417.867675
                         27       1    1fz3              8.608610     186.876105

                         28       1    1fx3              4.943880      53.654638
                         28       1    1fx2y             4.943880     119.975419
                         28       1    1fx2z             4.943880     119.975419
                         28       1    1fxy2             4.943880     119.975419
                         28       1    1fxyz             4.943880     207.803521
                         28       1    1fxz2             4.943880     119.975419
                         28       1    1fy3              4.943880      53.654638
                         28       1    1fy2z             4.943880     119.975419
                         28       1    1fyz2             4.943880     119.975419
                         28       1    1fz3              4.943880      53.654638

                         29       1    1fx3              2.814490      15.104411
                         29       1    1fx2y             2.814490      33.774490
                         29       1    1fx2z             2.814490      33.774490
                         29       1    1fxy2             2.814490      33.774490
                         29       1    1fxyz             2.814490      58.499133
                         29       1    1fxz2             2.814490      33.774490
                         29       1    1fy3              2.814490      15.104411
                         29       1    1fy2z             2.814490      33.774490
                         29       1    1fyz2             2.814490      33.774490
                         29       1    1fz3              2.814490      15.104411

                         30       1    1fx3              1.581520       4.129263
                         30       1    1fx2y             1.581520       9.233312
                         30       1    1fx2z             1.581520       9.233312
                         30       1    1fxy2             1.581520       9.233312
                         30       1    1fxyz             1.581520      15.992565
                         30       1    1fxz2             1.581520       9.233312
                         30       1    1fy3              1.581520       4.129263
                         30       1    1fy2z             1.581520       9.233312
                         30       1    1fyz2             1.581520       9.233312
                         30       1    1fz3              1.581520       4.129263

                         31       1    1fx3              0.809465       0.914956
                         31       1    1fx2y             0.809465       2.045903
                         31       1    1fx2z             0.809465       2.045903
                         31       1    1fxy2             0.809465       2.045903
                         31       1    1fxyz             0.809465       3.543609
                         31       1    1fxz2             0.809465       2.045903
                         31       1    1fy3              0.809465       0.914956
                         31       1    1fy2z             0.809465       2.045903
                         31       1    1fyz2             0.809465       2.045903
                         31       1    1fz3              0.809465       0.914956

                         32       1    1gx4              9.163700     492.187181
                         32       1    1gx3y             9.163700    1302.204879
                         32       1    1gx3z             9.163700    1302.204879
                         32       1    1gx2y2            9.163700    1681.139270
                         32       1    1gx2yz            9.163700    2911.818631
                         32       1    1gx2z2            9.163700    1681.139270
                         32       1    1gxy3             9.163700    1302.204879
                         32       1    1gxy2z            9.163700    2911.818631
                         32       1    1gxyz2            9.163700    2911.818631
                         32       1    1gxz3             9.163700    1302.204879
                         32       1    1gy4              9.163700     492.187181
                         32       1    1gy3z             9.163700    1302.204879
                         32       1    1gy2z2            9.163700    1681.139270
                         32       1    1gyz3             9.163700    1302.204879
                         32       1    1gz4              9.163700     492.187181

                         33       1    1gx4              4.936690      89.822271
                         33       1    1gx3y             4.936690     237.647391
                         33       1    1gx3z             4.936690     237.647391
                         33       1    1gx2y2            4.936690     306.801463
                         33       1    1gx2yz            4.936690     531.395721
                         33       1    1gx2z2            4.936690     306.801463
                         33       1    1gxy3             4.936690     237.647391
                         33       1    1gxy2z            4.936690     531.395721
                         33       1    1gxyz2            4.936690     531.395721
                         33       1    1gxz3             4.936690     237.647391
                         33       1    1gy4              4.936690      89.822271
                         33       1    1gy3z             4.936690     237.647391
                         33       1    1gy2z2            4.936690     306.801463
                         33       1    1gyz3             4.936690     237.647391
                         33       1    1gz4              4.936690      89.822271

                         34       1    1gx4              2.714870      17.347835
                         34       1    1gx3y             2.714870      45.898057
                         34       1    1gx3z             2.714870      45.898057
                         34       1    1gx2y2            2.714870      59.254137
                         34       1    1gx2yz            2.714870     102.631176
                         34       1    1gx2z2            2.714870      59.254137
                         34       1    1gxy3             2.714870      45.898057
                         34       1    1gxy2z            2.714870     102.631176
                         34       1    1gxyz2            2.714870     102.631176
                         34       1    1gxz3             2.714870      45.898057
                         34       1    1gy4              2.714870      17.347835
                         34       1    1gy3z             2.714870      45.898057
                         34       1    1gy2z2            2.714870      59.254137
                         34       1    1gyz3             2.714870      45.898057
                         34       1    1gz4              2.714870      17.347835

                         35       1    1gx4              1.319190       2.383859
                         35       1    1gx3y             1.319190       6.307099
                         35       1    1gx3z             1.319190       6.307099
                         35       1    1gx2y2            1.319190       8.142430
                         35       1    1gx2yz            1.319190      14.103102
                         35       1    1gx2z2            1.319190       8.142430
                         35       1    1gxy3             1.319190       6.307099
                         35       1    1gxy2z            1.319190      14.103102
                         35       1    1gxyz2            1.319190      14.103102
                         35       1    1gxz3             1.319190       6.307099
                         35       1    1gy4              1.319190       2.383859
                         35       1    1gy3z             1.319190       6.307099
                         35       1    1gy2z2            1.319190       8.142430
                         35       1    1gyz3             1.319190       6.307099
                         35       1    1gz4              1.319190       2.383859

                         36       1    1hx5              7.104650     434.368079
                         36       1    1hx4y             7.104650    1303.104237
                         36       1    1hx4z             7.104650    1303.104237
                         36       1    1hx3y2            7.104650    1990.524601
                         36       1    1hx3yz            7.104650    3447.689742
                         36       1    1hx3z2            7.104650    1990.524601
                         36       1    1hx2y3            7.104650    1990.524601
                         36       1    1hx2y2z           7.104650    4450.948318
                         36       1    1hx2yz2           7.104650    4450.948318
                         36       1    1hx2z3            7.104650    1990.524601
                         36       1    1hxy4             7.104650    1303.104237
                         36       1    1hxy3z            7.104650    3447.689742
                         36       1    1hxy2z2           7.104650    4450.948318
                         36       1    1hxyz3            7.104650    3447.689742
                         36       1    1hxz4             7.104650    1303.104237
                         36       1    1hy5              7.104650     434.368079
                         36       1    1hy4z             7.104650    1303.104237
                         36       1    1hy3z2            7.104650    1990.524601
[...]
 omega_points_pade = (  0.0000000000000000     ,  9.9999999999999998E-013) (  0.0000000000000000     ,  3.9782473475931619E-002) (  0.0000000000000000     ,  8.2842712474619024E-002) (  0.0000000000000000     , 0.13363572758385980     ) (  0.0000000000000000     , 0.20000000000000004     ) (  0.0000000000000000     , 0.29932115253309782     ) (  0.0000000000000000     , 0.48284271247461907     ) (  0.0000000000000000     , 0.99727829908815668     )
 level_energ_GW =  -7.5476426437429405     
 
 
 n_level_gw =           2
 AFTER get_sigma_c_newton_pade
 vec_gw_energ(n_level_gw) =   1.6166465070709861     
 AFTER evaluate_pade_function/get_z_and_m_value_pade
 energy_val =  0.26380746760396245     
 nparam_pade =           8
 Eigenval_scf(n_level_gw_ref) =  -179.96301882084686     
 nparam_pade =           8
 level_energ_GW =  -7.5476426437429405     
 
 nparam_pade =           8
 coeff_pade = (  8.3938600396789312E-002,  9.0945929436030661E-014) (  1.0897256908951212     , -3.1084442548369982E-002) (-0.83071981975581977     ,-0.21946973652128493     ) ( -3.0146449858169881     ,-0.10829777041437082     ) (  3.9614020722927745E-002,  3.1953118669519176     ) (  5.2299761764474692E-002, -3.4421857236785103     ) ( -1.0248583906443616     ,  7.7661757571487442     ) ( 0.15742693899867669     ,-0.32662013264067458     )
 sigma_c_pade = (  6.6336171446590635     , 0.55195731028984640     )
 z_value(n_level_gw) =  0.78437016732612874     
 m_value(n_level_gw) = -0.27490825334285796     
 coeff_pade = ( -2.6688708053510524E-002, -3.6995726049149978E-014) ( -1.3823982084167872     , -1.6208825420441695E-002) (-0.27362658069679929     ,-0.21190575983132001     ) ( -3.4713041098551658     ,  2.7969246460664179     ) (  2.8275612987246173     , -3.6947148860878216     ) ( 0.49933438422198878     , 0.10433658120621685     ) ( -1.2501593984619719     , -1.6770603976991794     ) ( 0.11173334677076607     , -1.5854471850421021     )
 sigma_c_pade = (-0.35981580433130100     ,-0.65763689445612716     )
 z_value(n_level_gw) =  0.91881640174971668     
 m_value(n_level_gw) =  -8.8356714242022835E-002
 level_energ_GW =  0.38225675411302340     
 omega_points_pade = (  0.0000000000000000     ,  9.9999999999999998E-013) (  0.0000000000000000     ,  3.9782473475931619E-002) (  0.0000000000000000     ,  8.2842712474619024E-002) (  0.0000000000000000     , 0.13363572758385980     ) (  0.0000000000000000     , 0.20000000000000004     ) (  0.0000000000000000     , 0.29932115253309782     ) (  0.0000000000000000     , 0.48284271247461907     ) (  0.0000000000000000     , 0.99727829908815668     )
 omega_points_pade = ( -0.0000000000000000     , -9.9999999999999998E-013) ( -0.0000000000000000     , -3.9782473475931619E-002) ( -0.0000000000000000     , -8.2842712474619024E-002) ( -0.0000000000000000     ,-0.13363572758385980     ) ( -0.0000000000000000     ,-0.20000000000000004     ) ( -0.0000000000000000     ,-0.29932115253309782     ) ( -0.0000000000000000     ,-0.48284271247461907     ) ( -0.0000000000000000     ,-0.99727829908815668     )
 level_energ_GW =  -1.4161156348717061     
 
 
 n_level_gw =           3
 AFTER get_sigma_c_newton_pade
 
 
 n_level_gw =          15
 AFTER get_sigma_c_newton_pade
 coeff_pade = ( -1.7740580839566242E-002, -3.4842662678232649E-014) ( -1.9487978485756818     , 0.12994491253857057     ) (  1.6453796192746581     ,-0.36219666292069214     ) (  1.1109735065044748     , 0.11633712805506065     ) (-0.60099399092811079     ,-0.62715199142921663     ) (-0.53822814905856742     , 0.34509727469828350     ) (-0.35344882904149671     ,  4.8782048291298889E-002) (-0.72546775135537256     ,  1.5576139405625873     )
 sigma_c_pade = (-0.79756105808785482     , -5.2645794095199988E-003)
 z_value(n_level_gw) =  0.94179539083452768     
 coeff_pade = (  2.4850245479314182E-002,  1.3059967726472298E-013) (  5.0454170879839992     ,-0.97677108114997779     ) ( -4.6529926923736999     ,  1.1115744197772568     ) (  1.7734514033162976E-002, -3.8892617692374691E-003) ( -5.1452437072863821     , -45.584324545730723     ) (  4.6779416929365629     ,  46.828864452398463     ) ( -3.2464492322960481E-003, 0.66032101692872158     ) ( -8.0609033746125491E-002,  1.6588719782930890     )
 sigma_c_pade = (  1.9588527512588121     , 0.11975898677995137     )
 z_value(n_level_gw) =  0.84847963924564862     
 m_value(n_level_gw) = -0.17857866440856793     
 vec_gw_energ(n_level_gw) = -0.60129924594531547     
 Eigenval_scf(n_level_gw_ref) =   7.0820598818222029     
 nparam_pade =           8
 level_energ_GW =  0.38225675411302340     
 
 vec_gw_energ(n_level_gw) =   8.5001846804708201     
 Eigenval_scf(n_level_gw_ref) =  -32.639692528035226     
 nparam_pade =           8
 level_energ_GW =  -1.4161156348717061     
 
 level_energ_GW = -0.65731403318527937     
 
 
 m_value(n_level_gw) =  -6.1801756232738689E-002
 level_energ_GW =  0.17114656709174431     
 
 
 n_level_gw =          13
 n_level_gw =           5
 AFTER get_sigma_c_newton_pade
 vec_gw_energ(n_level_gw) =   2.9393652031607873     
 Eigenval_scf(n_level_gw_ref) =  -12.921500765026035     
 nparam_pade =           8
 level_energ_GW = -0.65731403318527937     
 AFTER get_sigma_c_newton_pade
 vec_gw_energ(n_level_gw) = -0.93328306360970392     
 Eigenval_scf(n_level_gw_ref) =   2.7508875450006567     
 nparam_pade =           8
 level_energ_GW =  0.17114656709174431     
 
 
  
  GW quasiparticle energies
  -------------------------
   
  The GW quasiparticle energies are calculated according to: 
  E_GW = E_SCF + Z * ( Sigc(E_SCF) + Sigx - vxc )
   
  The energy unit of the following table is eV.  Sigc_fit is a very conservative
  estimate of the statistical error of the fitting.
   
            MO      E_SCF       Sigc   Sigc_fit   Sigx-vxc          Z       E_GW
     1 ( occ )   -662.564     -3.432      0.000    -55.720      1.000   -721.716
     2 ( occ )   -179.966      1.617      0.000    -28.870      1.000   -207.219
     3 ( occ )    -32.640      8.500      0.000    -14.148      1.000    -38.288
     4 ( occ )    -15.221      3.276      0.000     -8.638      1.000    -20.584
     5 ( occ )    -12.922      2.939      0.000     -7.810      1.000    -17.792
     6 ( occ )    -12.922      2.939      0.000     -7.810      1.000    -17.792
     7 ( occ )     -6.752      0.136      0.000     -3.968      1.000    -10.584
     8 ( vir )     -2.103     -1.927      0.000      5.251      1.000      1.220
     9 ( vir )     -2.103     -1.927      0.000      5.251      1.000      1.220
    10 ( vir )      0.824     -0.612      0.000      2.633      1.000      2.844
    11 ( vir )      2.143     -0.804      0.000      2.636      1.000      3.975
    12 ( vir )      2.143     -0.804      0.000      2.636      1.000      3.975
    13 ( vir )      2.751     -0.933      0.000      2.822      1.000      4.639
    14 ( vir )      6.134     -1.722      0.000      4.428      1.000      8.839
    15 ( vir )      7.082     -0.601      0.000      3.973      1.000     10.454
    16 ( vir )      7.082     -0.601      0.000      3.973      1.000     10.454
    17 ( vir )      7.549     -1.298      0.000      3.691      1.000      9.942
   
  GW HOMO-LUMO gap (eV)                                                    11.80
  

  Total RI-RPA Time=                                                  315.804319
  RI-RPA energy  =                                             -0.64328090793260

  Total EXX Time=                                                      23.508896
  EXX energy  =                                               -13.84649773003560

 ENERGY| Total FORCE_EVAL ( QS ) energy (a.u.):             -124.789831939415478


 -------------------------------------------------------------------------------
 -                                                                             -
 -                                DBCSR STATISTICS                             -
 -                                                                             -
 -------------------------------------------------------------------------------
 COUNTER                                    TOTAL       BLAS       SMM       ACC
 flops    57 x     7 x    57               181944     100.0%      0.0%      0.0%
 flops    57 x    57 x     7               272916     100.0%      0.0%      0.0%
 flops    57 x    57 x    57              1481544     100.0%      0.0%      0.0%
 flops   114 x   114 x    57              2963088     100.0%      0.0%      0.0%
 flops   193 x   193 x   193           1610348768     100.0%      0.0%      0.0%
 flops    57 x   969 x    57           2871232272     100.0%      0.0%      0.0%
 flops   386 x   114 x    57           4775666112     100.0%      0.0%      0.0%
 flops   386 x   114 x   193           8085118944     100.0%      0.0%      0.0%
 flops   193 x   193 x   532          26633332992     100.0%      0.0%      0.0%
 flops   193 x   193 x   551          27584523456     100.0%      0.0%      0.0%
 flops    57 x   912 x    57          29725698816     100.0%      0.0%      0.0%
 flops inhomo. stacks                           0       0.0%      0.0%      0.0%
 flops total                       101.290821E+09     100.0%      0.0%      0.0%
 flops max/rank                     18.125912E+09     100.0%      0.0%      0.0%
 matmuls inhomo. stacks                         0       0.0%      0.0%      0.0%
 matmuls total                               8372     100.0%      0.0%      0.0%
 number of processed stacks                  2496     100.0%      0.0%      0.0%
 average stack size                                     3.4       0.0       0.0
 marketing flops                   101.859164E+09
 -------------------------------------------------------------------------------
 # multiplications                            776
 max memory usage/rank             561.561600E+06
 # max total images/rank                        3
 # max 3D layers                                1
 # MPI messages exchanged                  334248
 MPI messages size (bytes):
  total size                         2.791694E+09
  min size                           0.000000E+00
  max size                         595.984000E+03
  average size                       8.352162E+03
 MPI breakdown and total messages size (bytes):
             size <=      128              322536                        0
       128 < size <=     8192                  22                   121296
      8192 < size <=    32768                   6                   155952
     32768 < size <=   131072                2892                150337728
    131072 < size <=  4194304                8792               2641129344
   4194304 < size <= 16777216                   0                        0
  16777216 < size                               0                        0
 -------------------------------------------------------------------------------

 *** WARNING in dbcsr_mm.F:278 :: Using a non-square number of MPI ranks ***
 *** might lead to poor performance. Used ranks: 24 Suggested: 25 49     ***

 -------------------------------------------------------------------------------
 -                                                                             -
 -                      DBCSR MESSAGE PASSING PERFORMANCE                      -
 -                                                                             -
 -------------------------------------------------------------------------------

 ROUTINE             CALLS      AVE VOLUME [Bytes]
 MP_Group               26
 MP_Bcast               12                     12.
 MP_Allreduce         4381                      8.
 MP_Alltoall          2344                  55093.
 MP_Wait             42080
 MP_ISend            30958                  20039.
 MP_IRecv            30958                     62.
 MP_Memory           56632
 -------------------------------------------------------------------------------


 MEMORY| Estimated peak process memory [MiB]                                 536

 -------------------------------------------------------------------------------
 ----                             MULTIGRID INFO                            ----
 -------------------------------------------------------------------------------
 count for grid        1:         276869          cutoff [a.u.]          200.00
 count for grid        2:          37322          cutoff [a.u.]           66.67
 count for grid        3:          18466          cutoff [a.u.]           22.22
 count for grid        4:           3959          cutoff [a.u.]            7.41
 total gridlevel count  :         336616

 -------------------------------------------------------------------------------
 -                                                                             -
 -                         MESSAGE PASSING PERFORMANCE                         -
 -                                                                             -
 -------------------------------------------------------------------------------

 ROUTINE             CALLS      AVE VOLUME [Bytes]
 MP_Group                5
 MP_Bcast              185                3071733.
 MP_Allreduce          341                  24403.
 MP_Sync                72
 MP_Alltoall           123                3780020.
 MP_ISendRecv          276                  63172.
 MP_Wait               940
 MP_comm_split          10
 MP_ISend             3188                  91663.
 MP_IRecv             2548                 247201.
 MP_Recv                 3                   1824.
 -------------------------------------------------------------------------------


 -------------------------------------------------------------------------------
 -                                                                             -
 -                           R E F E R E N C E S                               -
 -                                                                             -
 -------------------------------------------------------------------------------
 
 CP2K version 7.0 (Development Version), the CP2K developers group (2018).
 CP2K is freely available from https://www.cp2k.org/ .

 Schuett, Ole; Messmer, Peter; Hutter, Juerg; VandeVondele, Joost. 
 Electronic Structure Calculations on Graphics Processing Units, John Wiley & Sons, Ltd, 173-190 (2016). 
 GPU-Accelerated Sparse Matrix-Matrix Multiplication for Linear Scaling Density Functional Theory.
 https://dx.doi.org/10.1002/9781118670712.ch8


 Del Ben, M; Schuett, O; Wentz, T; Messmer, P; Hutter, J;
 VandeVondele, J. 
 COMPUTER PHYSICS COMMUNICATIONS, 187, 120-129 (2015). 
 Enabling simulation at the fifth rung of DFT: Large scale RPA
 calculations with excellent time to solution.
 https://dx.doi.org/10.1016/j.cpc.2014.10.021


 Borstnik, U; VandeVondele, J; Weber, V; Hutter, J. 
 PARALLEL COMPUTING, 40 (5-6), 47-58 (2014). 
 Sparse matrix multiplication: The distributed block-compressed sparse
 row library.
 https://dx.doi.org/10.1016/j.parco.2014.03.012


 Hutter, J; Iannuzzi, M; Schiffmann, F; VandeVondele, J. 
 WILEY INTERDISCIPLINARY REVIEWS-COMPUTATIONAL MOLECULAR SCIENCE, 4 (1), 15-25 (2014). 
 CP2K: atomistic simulations of condensed matter systems.
 https://dx.doi.org/10.1002/wcms.1159


 Del Ben, M; Hutter, J; VandeVondele, J. 
 JOURNAL OF CHEMICAL THEORY AND COMPUTATION, 9 (6), 2654-2671 (2013). 
 Electron Correlation in the Condensed Phase from a Resolution of
 Identity Approach Based on the Gaussian and Plane Waves Scheme.
 https://dx.doi.org/10.1021/ct4002202


 Del Ben, M; Hutter, J; VandeVondele, J. 
 JOURNAL OF CHEMICAL THEORY AND COMPUTATION, 8 (11), 4177-4188 (2012). 
 Second-Order Moller-Plesset Perturbation Theory in the Condensed Phase:
 An Efficient and Massively Parallel Gaussian and Plane Waves Approach.
 https://dx.doi.org/10.1021/ct300531w


 Guidon, M; Hutter, J; VandeVondele, J. 
 JOURNAL OF CHEMICAL THEORY AND COMPUTATION, 5 (11), 3010-3021 (2009). 
 Robust Periodic Hartree-Fock Exchange for Large-Scale Simulations Using
 Gaussian Basis Sets.
 https://dx.doi.org/10.1021/ct900494g


 Guidon, M; Schiffmann, F; Hutter, J; VandeVondele, J. 
 JOURNAL OF CHEMICAL PHYSICS, 128 (21), 214104 (2008). 
 Ab initio molecular dynamics using hybrid density functionals.
 https://dx.doi.org/10.1063/1.2931945


 Frigo, M; Johnson, SG. 
 PROCEEDINGS OF THE IEEE, 93 (2), 216-231 (2005). 
 The design and implementation of FFTW3.
 https://dx.doi.org/10.1109/JPROC.2004.840301


 Lippert, G; Hutter, J; Parrinello, M. 
 THEORETICAL CHEMISTRY ACCOUNTS, 103 (2), 124-140 (1999). 
 The Gaussian and augmented-plane-wave density functional method for ab
 initio molecular dynamics simulations.
 https://dx.doi.org/10.1007/s002140050523


 Krack, M; Parrinello, M. 
 PHYSICAL CHEMISTRY CHEMICAL PHYSICS, 2 (10), 2105-2112 (2000). 
 All-electron ab-initio molecular dynamics.
 https://dx.doi.org/10.1039/b001167n


 Martyna, GJ; Tuckerman, ME. 
 JOURNAL OF CHEMICAL PHYSICS, 110 (6), 2810-2821 (1999). 
 A reciprocal space based method for treating long range interactions in
 ab initio and force-field-based calculations in clusters.
 https://dx.doi.org/10.1063/1.477923


 Perdew, JP; Burke, K; Ernzerhof, M. 
 PHYSICAL REVIEW LETTERS, 77 (18), 3865-3868 (1996). 
 Generalized gradient approximation made simple.
 https://dx.doi.org/10.1103/PhysRevLett.77.3865


 -------------------------------------------------------------------------------
 -                                                                             -
 -                                T I M I N G                                  -
 -                                                                             -
 -------------------------------------------------------------------------------
 SUBROUTINE                       CALLS  ASD         SELF TIME        TOTAL TIME
                                MAXIMUM       AVERAGE  MAXIMUM  AVERAGE  MAXIMUM
 CP2K                                 1  1.0    0.015    0.019  345.872  345.873
 qs_energies                          1  2.0    0.000    0.000  344.105  344.105
 mp2_main                             1  3.0    0.000    0.000  339.325  339.333
 mp2_gpw_main                         1  4.0    0.000    0.000  315.804  315.804
 rpa_ri_compute_en                    1  5.0    0.000    0.000  299.176  299.176
 rpa_num_int                          1  6.0    0.001    0.002  299.174  299.175
 get_l_sq_wghts_sin_tf_t_to_w         2  7.0  140.788  142.707  142.724  142.725
 get_l_sq_wghts_cos_tf_t_to_w         2  7.0  140.940  142.651  142.692  142.693
 compute_vec_Sigma_x_minus_vxc_       1  4.0    0.000    0.000   23.509   23.509
 integrate_four_center                1  5.0    0.003    0.004   22.279   22.279
 mp2_ri_gpw_compute_in                1  5.0    0.000    0.000   14.741   16.621
 compute_low_sc_3c_integrals          1  6.0    4.840    5.797   14.506   16.386
 calc_screening_functions             1  6.0    9.587    9.964   13.786   14.397
 mp_sum_dm                           20  7.7    4.570   12.747    4.570   12.747
 compute_low_sc_3c_integrals_pu   19652  7.0    9.437   10.408    9.437   10.408
 powell_optimize                1359351  7.0    6.934    7.274    6.934    7.274
 dbcsr_multiply_generic             776  9.9    0.045    0.051    6.246    7.261
 -------------------------------------------------------------------------------

 The number of warnings for this run is : 1
 
 -------------------------------------------------------------------------------
  **** **** ******  **  PROGRAM ENDED AT                 2019-06-07 07:46:04.631
 ***** ** ***  *** **   PROGRAM RAN ON                                    tcopt4
 **    ****   ******    PROGRAM RAN BY                                   wilhelm
 ***** **    ** ** **   PROGRAM PROCESS ID                                 59385
  **** **  *******  **  PROGRAM STOPPED IN /data/wilhelm/2_job_test/11_GW100/3_c
                                           alcs/58_BF
