 DBCSR| CPU Multiplication driver                                           BLAS
 DBCSR| Multrec recursion limit                                              512
 DBCSR| Multiplication stack size                                           1000
 DBCSR| Maximum elements for images                                    UNLIMITED
 DBCSR| Multiplicative factor virtual images                                   1
 DBCSR| Use multiplication densification                                       T
 DBCSR| Multiplication size stacks                                             3
 DBCSR| Number of 3D layers                                               SINGLE
 DBCSR| Use MPI memory allocation                                              T
 DBCSR| Use RMA algorithm                                                      F
 DBCSR| Use Communication thread                                               T
 DBCSR| Communication thread load                                             87


  **** **** ******  **  PROGRAM STARTED AT               2019-05-31 16:23:43.577
 ***** ** ***  *** **   PROGRAM STARTED ON                                tcopt4
 **    ****   ******    PROGRAM STARTED BY                               wilhelm
 ***** **    ** ** **   PROGRAM PROCESS ID                                 76635
  **** **  *******  **  PROGRAM STARTED IN /data/wilhelm/2_job_test/11_GW100/3_c
                                           alcs/06_H2

 CP2K| version string:                    CP2K version 7.0 (Development Version)
 CP2K| source code revision number:                                  git:026fb12
 CP2K| cp2kflags: libint fftw3 libxc pexsi elpa=201705 parallel mpi3 scalapack q
 CP2K|            uip libderiv_max_am1=5 libint_max_am=6
 CP2K| is freely available from                            https://www.cp2k.org/
 CP2K| Program compiled at                         Sat May 11 13:15:02 CEST 2019
 CP2K| Program compiled on                                                tcopt4
 CP2K| Program compiled for                            local_valgrind_March_2019
 CP2K| Data directory path              /data/wilhelm/1_git_repository/cp2k/data
 CP2K| Input file name                                                    GW.inp

 GLOBAL| Force Environment number                                              1
 GLOBAL| Basis set file name                              BASIS_def2_QZVP_RI_ALL
 GLOBAL| Potential file name                                           POTENTIAL
 GLOBAL| MM Potential file name                                     MM_POTENTIAL
 GLOBAL| Coordinate file name                                          06_H2.xyz
 GLOBAL| Method name                                                        CP2K
 GLOBAL| Project name                                                   ALL_ELEC
 GLOBAL| Preferred FFT library                                             FFTW3
 GLOBAL| Preferred diagonalization lib.                                       SL
 GLOBAL| Run type                                                         ENERGY
 GLOBAL| All-to-all communication in single precision                          F
 GLOBAL| FFTs using library dependent lengths                                  F
 GLOBAL| Global print level                                               MEDIUM
 GLOBAL| MPI I/O enabled                                                       T
 GLOBAL| Total number of message passing processes                            40
 GLOBAL| Number of threads for this process                                    1
 GLOBAL| This output is from process                                           0
 GLOBAL| CPU model name :  Intel(R) Xeon(R) CPU E5-2697 v3 @ 2.60GHz

 MEMORY| system memory details [Kb]
 MEMORY|                        rank 0           min           max       average
 MEMORY| MemTotal            396954008     396954008     396954008     396954008
 MEMORY| MemFree             376700108     376700108     376700108     376700108
 MEMORY| Buffers                333584        333584        333584        333584
 MEMORY| Cached               16041784      16041784      16041784      16041784
 MEMORY| Slab                   601244        601244        601244        601244
 MEMORY| SReclaimable           461740        461740        461740        461740
 MEMORY| MemLikelyFree       393537216     393537216     393537216     393537216


 *** Fundamental physical constants (SI units) ***

 *** Literature: B. J. Mohr and B. N. Taylor,
 ***             CODATA recommended values of the fundamental physical
 ***             constants: 2006, Web Version 5.1
 ***             http://physics.nist.gov/constants

 Speed of light in vacuum [m/s]                             2.99792458000000E+08
 Magnetic constant or permeability of vacuum [N/A**2]       1.25663706143592E-06
 Electric constant or permittivity of vacuum [F/m]          8.85418781762039E-12
 Planck constant (h) [J*s]                                  6.62606896000000E-34
 Planck constant (h-bar) [J*s]                              1.05457162825177E-34
 Elementary charge [C]                                      1.60217648700000E-19
 Electron mass [kg]                                         9.10938215000000E-31
 Electron g factor [ ]                                     -2.00231930436220E+00
 Proton mass [kg]                                           1.67262163700000E-27
 Fine-structure constant                                    7.29735253760000E-03
 Rydberg constant [1/m]                                     1.09737315685270E+07
 Avogadro constant [1/mol]                                  6.02214179000000E+23
 Boltzmann constant [J/K]                                   1.38065040000000E-23
 Atomic mass unit [kg]                                      1.66053878200000E-27
 Bohr radius [m]                                            5.29177208590000E-11

 *** Conversion factors ***

 [u] -> [a.u.]                                              1.82288848426455E+03
 [Angstrom] -> [Bohr] = [a.u.]                              1.88972613288564E+00
 [a.u.] = [Bohr] -> [Angstrom]                              5.29177208590000E-01
 [a.u.] -> [s]                                              2.41888432650478E-17
 [a.u.] -> [fs]                                             2.41888432650478E-02
 [a.u.] -> [J]                                              4.35974393937059E-18
 [a.u.] -> [N]                                              8.23872205491840E-08
 [a.u.] -> [K]                                              3.15774647902944E+05
 [a.u.] -> [kJ/mol]                                         2.62549961709828E+03
 [a.u.] -> [kcal/mol]                                       6.27509468713739E+02
 [a.u.] -> [Pa]                                             2.94210107994716E+13
 [a.u.] -> [bar]                                            2.94210107994716E+08
 [a.u.] -> [atm]                                            2.90362800883016E+08
 [a.u.] -> [eV]                                             2.72113838565563E+01
 [a.u.] -> [Hz]                                             6.57968392072181E+15
 [a.u.] -> [1/cm] (wave numbers)                            2.19474631370540E+05
 [a.u./Bohr**2] -> [1/cm]                                   5.14048714338585E+03
 

 CELL_TOP| Volume [angstrom^3]:                                         4096.000
 CELL_TOP| Vector a [angstrom    16.000     0.000     0.000    |a| =      16.000
 CELL_TOP| Vector b [angstrom     0.000    16.000     0.000    |b| =      16.000
 CELL_TOP| Vector c [angstrom     0.000     0.000    16.000    |c| =      16.000
 CELL_TOP| Angle (b,c), alpha [degree]:                                   90.000
 CELL_TOP| Angle (a,c), beta  [degree]:                                   90.000
 CELL_TOP| Angle (a,b), gamma [degree]:                                   90.000
 CELL_TOP| Numerically orthorhombic:                                         YES

 GENERATE|  Preliminary Number of Bonds generated:                             0
 GENERATE|  Achieved consistency in connectivity generation.

 CELL| Volume [angstrom^3]:                                             4096.000
 CELL| Vector a [angstrom]:      16.000     0.000     0.000    |a| =      16.000
 CELL| Vector b [angstrom]:       0.000    16.000     0.000    |b| =      16.000
 CELL| Vector c [angstrom]:       0.000     0.000    16.000    |c| =      16.000
 CELL| Angle (b,c), alpha [degree]:                                       90.000
 CELL| Angle (a,c), beta  [degree]:                                       90.000
 CELL| Angle (a,b), gamma [degree]:                                       90.000
 CELL| Numerically orthorhombic:                                             YES

 CELL_REF| Volume [angstrom^3]:                                         4096.000
 CELL_REF| Vector a [angstrom    16.000     0.000     0.000    |a| =      16.000
 CELL_REF| Vector b [angstrom     0.000    16.000     0.000    |b| =      16.000
 CELL_REF| Vector c [angstrom     0.000     0.000    16.000    |c| =      16.000
 CELL_REF| Angle (b,c), alpha [degree]:                                   90.000
 CELL_REF| Angle (a,c), beta  [degree]:                                   90.000
 CELL_REF| Angle (a,b), gamma [degree]:                                   90.000
 CELL_REF| Numerically orthorhombic:                                         YES

 *******************************************************************************
 *******************************************************************************
 **                                                                           **
 **     #####                         ##              ##                      **
 **    ##   ##            ##          ##              ##                      **
 **   ##     ##                       ##            ######                    **
 **   ##     ##  ##   ##  ##   #####  ##  ##   ####   ##    #####    #####    **
 **   ##     ##  ##   ##  ##  ##      ## ##   ##      ##   ##   ##  ##   ##   **
 **   ##  ## ##  ##   ##  ##  ##      ####     ###    ##   ######   ######    **
 **    ##  ###   ##   ##  ##  ##      ## ##      ##   ##   ##       ##        **
 **     #######   #####   ##   #####  ##  ##  ####    ##    #####   ##        **
 **           ##                                                    ##        **
 **                                                                           **
 **                                                ... make the atoms dance   **
 **                                                                           **
 **            Copyright (C) by CP2K developers group (2000 - 2019)           **
 **                                                                           **
 *******************************************************************************

 DFT| Spin restricted Kohn-Sham (RKS) calculation                            RKS
 DFT| Multiplicity                                                             1
 DFT| Number of spin states                                                    1
 DFT| Charge                                                                   0
 DFT| Self-interaction correction (SIC)                                       NO
 DFT| Cutoffs: density                                              1.000000E-10
 DFT|          gradient                                             1.000000E-10
 DFT|          tau                                                  1.000000E-10
 DFT|          cutoff_smoothing_range                               0.000000E+00
 DFT| XC density smoothing                                                  NONE
 DFT| XC derivatives                                                          PW
 FUNCTIONAL| ROUTINE=NEW
 FUNCTIONAL| PBE:
 FUNCTIONAL| J.P.Perdew, K.Burke, M.Ernzerhof, Phys. Rev. Letter, vol. 77, n 18,
 FUNCTIONAL|  pp. 3865-3868, (1996){spin unpolarized}                           

 QS| Method:                                                                GAPW
 QS| Density plane wave grid type                        NON-SPHERICAL FULLSPACE
 QS| Number of grid levels:                                                    4
 QS| Density cutoff [a.u.]:                                                200.0
 QS| Multi grid cutoff [a.u.]: 1) grid level                               200.0
 QS|                           2) grid level                                66.7
 QS|                           3) grid level                                22.2
 QS|                           4) grid level                                 7.4
 QS| Grid level progression factor:                                          3.0
 QS| Relative density cutoff [a.u.]:                                        25.0
 QS| Consistent realspace mapping and integration 
 QS| Interaction thresholds: eps_pgf_orb:                                1.0E-05
 QS|                         eps_filter_matrix:                          0.0E+00
 QS|                         eps_core_charge:                            1.0E-12
 QS|                         eps_rho_gspace:                             1.0E-10
 QS|                         eps_rho_rspace:                             1.0E-10
 QS|                         eps_gvg_rspace:                             1.0E-05
 QS|                         eps_ppl:                                    1.0E-02
 QS|                         eps_ppnl:                                   1.0E-07
 QS| GAPW|                   eps_fit:                                    1.0E-04
 QS| GAPW|                   eps_iso:                                    1.0E-12
 QS| GAPW|                   eps_svd:                                    1.0E-08
 QS| GAPW|                   eps_cpc:                                    1.0E-10
 QS| GAPW|   atom-r-grid: quadrature:                 GC_LOG                        
 QS| GAPW|      atom-s-grid:  max l :                                          6
 QS| GAPW|      max_l_rho0 :                                                   2


 ATOMIC KIND INFORMATION

  1. Atomic kind: H                                     Number of atoms:       2

     Orbital Basis Set                                                 def2-QZVP

       Number of orbital shell sets:                                          10
       Number of orbital shells:                                              10
       Number of primitive Cartesian functions:                               13
       Number of Cartesian basis functions:                                   35
       Number of spherical basis functions:                                   30
       Norm type:                                                              2

       Normalised Cartesian orbitals:

                        Set   Shell   Orbital            Exponent    Coefficient

                          1       1    1s              190.691690       0.195396
                                                        28.605532       0.363661
                                                         6.509594       0.612837
                                                         1.841246       0.914889

                          2       1    1s                0.598537       0.484985

                          3       1    1s                0.213976       0.224225

                          4       1    1s                0.080316       0.107526

                          5       1    1px               2.292000       4.019836
                          5       1    1py               2.292000       4.019836
                          5       1    1pz               2.292000       4.019836

                          6       1    1px               0.838000       1.142865
                          6       1    1py               0.838000       1.142865
                          6       1    1pz               0.838000       1.142865

                          7       1    1px               0.292000       0.305963
                          7       1    1py               0.292000       0.305963
                          7       1    1pz               0.292000       0.305963

                          8       1    1dx2              2.062000       5.840024
                          8       1    1dxy              2.062000      10.115218
                          8       1    1dxz              2.062000      10.115218
                          8       1    1dy2              2.062000       5.840024
                          8       1    1dyz              2.062000      10.115218
                          8       1    1dz2              2.062000       5.840024

                          9       1    1dx2              0.662000       0.799670
                          9       1    1dxy              0.662000       1.385069
                          9       1    1dxz              0.662000       1.385069
                          9       1    1dy2              0.662000       0.799670
                          9       1    1dyz              0.662000       1.385069
                          9       1    1dz2              0.662000       0.799670

                         10       1    1fx3              1.397000       3.123535
                         10       1    1fx2y             1.397000       6.984436
                         10       1    1fx2z             1.397000       6.984436
                         10       1    1fxy2             1.397000       6.984436
                         10       1    1fxyz             1.397000      12.097399
                         10       1    1fxz2             1.397000       6.984436
                         10       1    1fy3              1.397000       3.123535
                         10       1    1fy2z             1.397000       6.984436
                         10       1    1fyz2             1.397000       6.984436
                         10       1    1fz3              1.397000       3.123535

     RI Auxiliary Basis Set                                                RI-5Z

       Number of orbital shell sets:                                          21
       Number of orbital shells:                                              21
       Number of primitive Cartesian functions:                               21
       Number of Cartesian basis functions:                                  126
       Number of spherical basis functions:                                   91
       Norm type:                                                              2

       Normalised Cartesian orbitals:

                        Set   Shell   Orbital            Exponent    Coefficient

                          1       1    1s               23.321500       7.563581

                          2       1    1s                4.922970       2.355486

                          3       1    1s                1.775100       1.096042

                          4       1    1s                0.994218       0.709613

                          5       1    1s                0.506054       0.427620

                          6       1    1s                0.236911       0.242019

                          7       1    1px               5.974580      13.314483
                          7       1    1py               5.974580      13.314483
                          7       1    1pz               5.974580      13.314483

                          8       1    1px               2.052170       3.501118
                          8       1    1py               2.052170       3.501118
                          8       1    1pz               2.052170       3.501118

                          9       1    1px               1.248660       1.881462
                          9       1    1py               1.248660       1.881462
                          9       1    1pz               1.248660       1.881462

                         10       1    1px               0.805545       1.087808
                         10       1    1py               0.805545       1.087808
                         10       1    1pz               0.805545       1.087808

                         11       1    1px               0.347892       0.380843
                         11       1    1py               0.347892       0.380843
                         11       1    1pz               0.347892       0.380843

                         12       1    1dx2              3.858160      17.481346
                         12       1    1dxy              3.858160      30.278579
                         12       1    1dxz              3.858160      30.278579
                         12       1    1dy2              3.858160      17.481346
                         12       1    1dyz              3.858160      30.278579
                         12       1    1dz2              3.858160      17.481346

                         13       1    1dx2              1.710630       4.211459
                         13       1    1dxy              1.710630       7.294461
                         13       1    1dxz              1.710630       7.294461
                         13       1    1dy2              1.710630       4.211459
                         13       1    1dyz              1.710630       7.294461
                         13       1    1dz2              1.710630       4.211459

                         14       1    1dx2              0.979237       1.586584
                         14       1    1dxy              0.979237       2.748044
                         14       1    1dxz              0.979237       2.748044
                         14       1    1dy2              0.979237       1.586584
                         14       1    1dyz              0.979237       2.748044
                         14       1    1dz2              0.979237       1.586584

                         15       1    1dx2              0.625366       0.723843
                         15       1    1dxy              0.625366       1.253733
                         15       1    1dxz              0.625366       1.253733
                         15       1    1dy2              0.625366       0.723843
                         15       1    1dyz              0.625366       1.253733
                         15       1    1dz2              0.625366       0.723843

                         16       1    1fx3              3.101510      18.792914
                         16       1    1fx2y             3.101510      42.022232
                         16       1    1fx2z             3.101510      42.022232
                         16       1    1fxy2             3.101510      42.022232
                         16       1    1fxyz             3.101510      72.784641
                         16       1    1fxz2             3.101510      42.022232
                         16       1    1fy3              3.101510      18.792914
                         16       1    1fy2z             3.101510      42.022232
                         16       1    1fyz2             3.101510      42.022232
                         16       1    1fz3              3.101510      18.792914

                         17       1    1fx3              1.198110       2.210915
                         17       1    1fx2y             1.198110       4.943756
                         17       1    1fx2z             1.198110       4.943756
                         17       1    1fxy2             1.198110       4.943756
                         17       1    1fxyz             1.198110       8.562836
                         17       1    1fxz2             1.198110       4.943756
                         17       1    1fy3              1.198110       2.210915
                         17       1    1fy2z             1.198110       4.943756
                         17       1    1fyz2             1.198110       4.943756
                         17       1    1fz3              1.198110       2.210915

                         18       1    1fx3              0.572873       0.420326
                         18       1    1fx2y             0.572873       0.939876
                         18       1    1fx2z             0.572873       0.939876
                         18       1    1fxy2             0.572873       0.939876
                         18       1    1fxyz             0.572873       1.627914
                         18       1    1fxz2             0.572873       0.939876
                         18       1    1fy3              0.572873       0.420326
                         18       1    1fy2z             0.572873       0.939876
                         18       1    1fyz2             0.572873       0.939876
                         18       1    1fz3              0.572873       0.420326

                         19       1    1gx4              2.987800      22.576266
                         19       1    1gx3y             2.987800      59.731185
                         19       1    1gx3z             2.987800      59.731185
                         19       1    1gx2y2            2.987800      77.112629
                         19       1    1gx2yz            2.987800     133.562991
                         19       1    1gx2z2            2.987800      77.112629
                         19       1    1gxy3             2.987800      59.731185
                         19       1    1gxy2z            2.987800     133.562991
                         19       1    1gxyz2            2.987800     133.562991
                         19       1    1gxz3             2.987800      59.731185
                         19       1    1gy4              2.987800      22.576266
                         19       1    1gy3z             2.987800      59.731185
                         19       1    1gy2z2            2.987800      77.112629
                         19       1    1gyz3             2.987800      59.731185
                         19       1    1gz4              2.987800      22.576266

                         20       1    1gx4              1.231920       1.974865
                         20       1    1gx3y             1.231920       5.225001
                         20       1    1gx3z             1.231920       5.225001
                         20       1    1gx2y2            1.231920       6.745447
                         20       1    1gx2yz            1.231920      11.683456
                         20       1    1gx2z2            1.231920       6.745447
                         20       1    1gxy3             1.231920       5.225001
                         20       1    1gxy2z            1.231920      11.683456
                         20       1    1gxyz2            1.231920      11.683456
                         20       1    1gxz3             1.231920       5.225001
                         20       1    1gy4              1.231920       1.974865
                         20       1    1gy3z             1.231920       5.225001
                         20       1    1gy2z2            1.231920       6.745447
                         20       1    1gyz3             1.231920       5.225001
                         20       1    1gz4              1.231920       1.974865

                         21       1    1hx5              3.247390      34.106027
                         21       1    1hx4y             3.247390     102.318080
                         21       1    1hx4z             3.247390     102.318080
                         21       1    1hx3y2            3.247390     156.293448
                         21       1    1hx3yz            3.247390     270.708193
                         21       1    1hx3z2            3.247390     156.293448
                         21       1    1hx2y3            3.247390     156.293448
                         21       1    1hx2y2z           3.247390     349.482775
                         21       1    1hx2yz2           3.247390     349.482775
                         21       1    1hx2z3            3.247390     156.293448
                         21       1    1hxy4             3.247390     102.318080
                         21       1    1hxy3z            3.247390     270.708193
                         21       1    1hxy2z2           3.247390     349.482775
                         21       1    1hxyz3            3.247390     270.708193
                         21       1    1hxz4             3.247390     102.318080
                         21       1    1hy5              3.247390      34.106027
                         21       1    1hy4z             3.247390     102.318080
                         21       1    1hy3z2            3.247390     156.293448
                         21       1    1hy2z3            3.247390     156.293448
                         21       1    1hyz4             3.247390     102.318080
                         21       1    1hz5              3.247390      34.106027

     The atoms of this atomic kind are PAW atoms (GAPW):
       Hard Gaussian function radius:                                      1.200
       Rho0 radius:                                                        1.200
       Maximum GTO radius used for PAW projector construction:            24.566

     GAPW Soft Basis Set                                          def2-QZVP_soft

       Number of orbital shell sets:                                          10
       Number of orbital shells:                                              10
       Number of primitive Cartesian functions:                               10
       Number of Cartesian basis functions:                                   35
       Number of spherical basis functions:                                   30
       Norm type:                                                              2

       Normalised Cartesian orbitals:

                        Set   Shell   Orbital            Exponent    Coefficient

                          1       1    1s                1.841246       0.914889

                          2       1    1s                0.598537       0.484985

                          3       1    1s                0.213976       0.224225

                          4       1    1s                0.080316       0.107526

                          5       1    1px               2.292000       4.019836
                          5       1    1py               2.292000       4.019836
                          5       1    1pz               2.292000       4.019836

                          6       1    1px               0.838000       1.142865
                          6       1    1py               0.838000       1.142865
                          6       1    1pz               0.838000       1.142865

                          7       1    1px               0.292000       0.305963
                          7       1    1py               0.292000       0.305963
                          7       1    1pz               0.292000       0.305963

                          8       1    1dx2              2.062000       5.840024
                          8       1    1dxy              2.062000      10.115218
                          8       1    1dxz              2.062000      10.115218
                          8       1    1dy2              2.062000       5.840024
                          8       1    1dyz              2.062000      10.115218
                          8       1    1dz2              2.062000       5.840024

                          9       1    1dx2              0.662000       0.799670
                          9       1    1dxy              0.662000       1.385069
                          9       1    1dxz              0.662000       1.385069
                          9       1    1dy2              0.662000       0.799670
                          9       1    1dyz              0.662000       1.385069
                          9       1    1dz2              0.662000       0.799670

                         10       1    1fx3              1.397000       3.123535
                         10       1    1fx2y             1.397000       6.984436
                         10       1    1fx2z             1.397000       6.984436
                         10       1    1fxy2             1.397000       6.984436
                         10       1    1fxyz             1.397000      12.097399
                         10       1    1fxz2             1.397000       6.984436
                         10       1    1fy3              1.397000       3.123535
                         10       1    1fy2z             1.397000       6.984436
                         10       1    1fyz2             1.397000       6.984436
                         10       1    1fz3              1.397000       3.123535

     AE Potential information for                                            ALL

       Description:                                       All-electron potential
                                          Krack, Parrinello, PCCP 2, 2105 (2000)

       Gaussian exponent of the core charge distribution:              12.500000
       Electronic configuration (s p d ...):                           1   0   0


 MOLECULE KIND INFORMATION


 All atoms are their own molecule, skipping detailed information


 TOTAL NUMBERS AND MAXIMUM NUMBERS

  Total number of            - Atomic kinds:                                   1
                             - Atoms:                                          2
                             - Shell sets:                                    20
                             - Shells:                                        20
                             - Primitive Cartesian functions:                 26
                             - Cartesian basis functions:                     70
                             - Spherical basis functions:                     60

  Maximum angular momentum of the orbital basis functions:                     3


 MODULE QUICKSTEP:  ATOMIC COORDINATES IN angstrom

  Atom  Kind  Element       X           Y           Z          Z(eff)       Mass

       1     1 H    1    8.000000    8.000000    7.629280      1.00       1.0079
       2     1 H    1    8.000000    8.000000    8.370720      1.00       1.0079




 SCF PARAMETERS         Density guess:                                   RESTART
                        --------------------------------------------------------
                        max_scf:                                             200
                        max_scf_history:                                       0
                        max_diis:                                              4
                        --------------------------------------------------------
                        eps_scf:                                        1.00E-06
                        eps_scf_history:                                0.00E+00
                        eps_diis:                                       1.00E-01
                        eps_eigval:                                     1.00E-05
                        --------------------------------------------------------
                        level_shift [a.u.]:                                 0.00
                        --------------------------------------------------------
                        Mixing method:                           DIRECT_P_MIXING
                        --------------------------------------------------------
                        No outer SCF

 PW_GRID| Information for grid number                                          1
 PW_GRID| Grid distributed over                                    40 processors
 PW_GRID| Real space group dimensions                                    40    1
 PW_GRID| the grid is blocked:                                                NO
 PW_GRID| Cutoff [a.u.]                                                    400.0
 PW_GRID| spherical cutoff:                                                   NO
 PW_GRID|   Bounds   1           -144     143                Points:         288
 PW_GRID|   Bounds   2           -144     143                Points:         288
 PW_GRID|   Bounds   3           -144     143                Points:         288
 PW_GRID| Volume element (a.u.^3)  0.1157E-02     Volume (a.u.^3)     27641.1785
 PW_GRID| Grid span                                                    FULLSPACE
 PW_GRID|   Distribution                         Average         Max         Min
 PW_GRID|   G-Vectors                           597196.8      597312      597024
 PW_GRID|   G-Rays                                2073.6        2074        2073
 PW_GRID|   Real Space Points                   597196.8      663552      580608

 PW_GRID| Information for grid number                                          2
 PW_GRID| Grid distributed over                                    40 processors
 PW_GRID| Real space group dimensions                                    40    1
 PW_GRID| the grid is blocked:                                                NO
 PW_GRID| Cutoff [a.u.]                                                    200.0
 PW_GRID| spherical cutoff:                                                   NO
 PW_GRID|   Bounds   1           -100      99                Points:         200
 PW_GRID|   Bounds   2           -100      99                Points:         200
 PW_GRID|   Bounds   3           -100      99                Points:         200
 PW_GRID| Volume element (a.u.^3)  0.3455E-02     Volume (a.u.^3)     27641.1785
 PW_GRID| Grid span                                                    FULLSPACE
 PW_GRID|   Distribution                         Average         Max         Min
 PW_GRID|   G-Vectors                           200000.0      200600      199600
 PW_GRID|   G-Rays                                1000.0        1003         998
 PW_GRID|   Real Space Points                   200000.0      200000      200000

 PW_GRID| Information for grid number                                          3
 PW_GRID| Grid distributed over                                    40 processors
 PW_GRID| Real space group dimensions                                    40    1
 PW_GRID| the grid is blocked:                                                NO
 PW_GRID| Cutoff [a.u.]                                                     66.7
 PW_GRID| spherical cutoff:                                                   NO
 PW_GRID|   Bounds   1            -60      59                Points:         120
 PW_GRID|   Bounds   2            -60      59                Points:         120
 PW_GRID|   Bounds   3            -60      59                Points:         120
 PW_GRID| Volume element (a.u.^3)  0.1600E-01     Volume (a.u.^3)     27641.1785
 PW_GRID| Grid span                                                    FULLSPACE
 PW_GRID|   Distribution                         Average         Max         Min
 PW_GRID|   G-Vectors                            43200.0       43560       42960
 PW_GRID|   G-Rays                                 360.0         363         358
 PW_GRID|   Real Space Points                    43200.0       43200       43200

 PW_GRID| Information for grid number                                          4
 PW_GRID| Grid distributed over                                    40 processors
 PW_GRID| Real space group dimensions                                    40    1
 PW_GRID| the grid is blocked:                                                NO
 PW_GRID| Cutoff [a.u.]                                                     22.2
 PW_GRID| spherical cutoff:                                                   NO
 PW_GRID|   Bounds   1            -36      35                Points:          72
 PW_GRID|   Bounds   2            -36      35                Points:          72
 PW_GRID|   Bounds   3            -36      35                Points:          72
 PW_GRID| Volume element (a.u.^3)  0.7406E-01     Volume (a.u.^3)     27641.1785
 PW_GRID| Grid span                                                    FULLSPACE
 PW_GRID|   Distribution                         Average         Max         Min
 PW_GRID|   G-Vectors                             9331.2        9432        9288
 PW_GRID|   G-Rays                                 129.6         131         129
 PW_GRID|   Real Space Points                     9331.2       10368        5184

 PW_GRID| Information for grid number                                          5
 PW_GRID| Grid distributed over                                    40 processors
 PW_GRID| Real space group dimensions                                    40    1
 PW_GRID| the grid is blocked:                                                NO
 PW_GRID| Cutoff [a.u.]                                                      7.4
 PW_GRID| spherical cutoff:                                                   NO
 PW_GRID|   Bounds   1            -20      19                Points:          40
 PW_GRID|   Bounds   2            -20      19                Points:          40
 PW_GRID|   Bounds   3            -20      19                Points:          40
 PW_GRID| Volume element (a.u.^3)  0.4319         Volume (a.u.^3)     27641.1785
 PW_GRID| Grid span                                                    FULLSPACE
 PW_GRID|   Distribution                         Average         Max         Min
 PW_GRID|   G-Vectors                             1600.0        1720        1520
 PW_GRID|   G-Rays                                  40.0          43          38
 PW_GRID|   Real Space Points                     1600.0        1600        1600

 POISSON| Solver                                          Martyna-Tuckerman (MT)
 POISSON| MT| Alpha                                                        7.000
 POISSON| MT| Relative cutoff                                                2.0
 POISSON| Periodicity                                                       NONE

 RS_GRID| Information for grid number                                          2
 RS_GRID|   Bounds   1           -100      99                Points:         200
 RS_GRID|   Bounds   2           -100      99                Points:         200
 RS_GRID|   Bounds   3           -100      99                Points:         200
 RS_GRID| Real space distribution over                                  5 groups
 RS_GRID| Real space distribution along direction                              2
 RS_GRID| Border size                                                         24
 RS_GRID| Real space distribution over                                  8 groups
 RS_GRID| Real space distribution along direction                              3
 RS_GRID| Border size                                                         24
 RS_GRID|   Distribution                         Average         Max         Min
 RS_GRID|   Planes                                  88.0          88          88
 RS_GRID|   Distribution                         Average         Max         Min
 RS_GRID|   Planes                                  73.0          73          73

 RS_GRID| Information for grid number                                          3
 RS_GRID|   Bounds   1            -60      59                Points:         120
 RS_GRID|   Bounds   2            -60      59                Points:         120
 RS_GRID|   Bounds   3            -60      59                Points:         120
 RS_GRID| Real space distribution over                                  5 groups
 RS_GRID| Real space distribution along direction                              2
 RS_GRID| Border size                                                         24
 RS_GRID| Real space distribution over                                  8 groups
 RS_GRID| Real space distribution along direction                              3
 RS_GRID| Border size                                                         24
 RS_GRID|   Distribution                         Average         Max         Min
 RS_GRID|   Planes                                  72.0          72          72
 RS_GRID|   Distribution                         Average         Max         Min
 RS_GRID|   Planes                                  63.0          63          63

 RS_GRID| Information for grid number                                          4
 RS_GRID|   Bounds   1            -36      35                Points:          72
 RS_GRID|   Bounds   2            -36      35                Points:          72
 RS_GRID|   Bounds   3            -36      35                Points:          72
 RS_GRID| Real space fully replicated
 RS_GRID| Group size                                                           1

 RS_GRID| Information for grid number                                          5
 RS_GRID|   Bounds   1            -20      19                Points:          40
 RS_GRID|   Bounds   2            -20      19                Points:          40
 RS_GRID|   Bounds   3            -20      19                Points:          40
 RS_GRID| Real space fully replicated
 RS_GRID| Group size                                                           1
 
 RI-RPA| using GPW style
 

  HFX_INFO| Replica ID:                                                        1
  HFX_INFO| EPS_SCHWARZ:                                                 2.0E-17
  HFX_INFO| EPS_SCHWARZ_FORCES                                           1.0E-06
  HFX_INFO| EPS_STORAGE_SCALING:                                         1.0E+00
  HFX_INFO| NBINS:                                                            64
  HFX_INFO| BLOCK_SIZE:                                                        1
  HFX_INFO| FRACTION:                                               1.0000000000
  HFX_INFO| Interaction Potential:                                       COULOMB
  HFX_INFO| Number of periodic shells considered:                           NONE
  HFX_INFO| Number of periodic cells considered:                            NONE


 Number of electrons:                                                          2
 Number of occupied orbitals:                                                  1
 Number of molecular orbitals:                                                 1

 Number of orbital functions:                                                 60
 Number of independent orbital functions:                                     60

 Extrapolation method: initial_guess


 SCF WAVEFUNCTION OPTIMIZATION

  Step     Update method      Time    Convergence         Total energy    Change
  ------------------------------------------------------------------------------
     1 P_Mix/Diag. 0.40E+00    1.5     3.2528E-11        -1.1666391867 -1.17E+00

  *** SCF run converged in     1 steps ***


  Electronic density on regular grids:         -1.9382199903        0.0617800097
  Core density on regular grids:                2.0000000000       -0.0000000000
  Hard and soft densities (Lebedev):           -5.3235708361       -5.2617869767
  Total Rho_soft + Rho1_hard - Rho1_soft       -2.0000038497
  Total charge density (r-space):              -0.0000038497
  Total Rho_soft + Rho0_soft (g-space):        -0.0000038561

  Overlap energy of the core charge distribution:               0.00000051968942
  Self energy of the core charge distribution:                 -2.82094791773878
  Core Hamiltonian energy:                                      0.98137646154901
  Hartree energy:                                               1.07918617304496
  Exchange-correlation energy:                                 -0.64822397004008

  GAPW| Exc from hard and soft atomic rho1:                    -0.04241293854428
  GAPW| local Eh = 1 center integrals:                          0.28438248538275

  Total energy:                                                -1.16663918665701

 !-----------------------------------------------------------------------------!
                     Mulliken Population Analysis

 #  Atom  Element  Kind  Atomic population                           Net charge
       1     H        1          1.000000                             -0.000000
       2     H        1          1.000000                              0.000000
 # Total charge                              2.000000                 -0.000000

 !-----------------------------------------------------------------------------!

 !-----------------------------------------------------------------------------!
                           Hirshfeld Charges

  #Atom  Element  Kind  Ref Charge     Population                    Net charge
      1       H      1       1.000          0.905                         0.095
      2       H      1       1.000          0.905                         0.095

  Total Charge                                                            0.191
 !-----------------------------------------------------------------------------!


 RI-RPA section
 --------------

  Used number of processes per group:                                          1
  Maximum allowed memory usage per MPI processes:                     200.00 MiB

  HFX_MEM_INFO| Est. max. program size before HFX [MiB]:                     273
  HFX_MEM_INFO| Number of cart. primitive ERI's calculated:             12493488
  HFX_MEM_INFO| Number of sph. ERI's calculated:                         4860000
  HFX_MEM_INFO| Number of sph. ERI's stored in-core:                     4860000
  HFX_MEM_INFO| Number of sph. ERI's stored on disk:                           0
  HFX_MEM_INFO| Number of sph. ERI's calculated on the fly:                    0
  HFX_MEM_INFO| Total memory consumption ERI's RAM [MiB]:                     30
  HFX_MEM_INFO| Whereof max-vals [MiB]:                                        1
  HFX_MEM_INFO| Total compression factor ERI's RAM:                         1.25
  HFX_MEM_INFO| Total memory consumption ERI's disk [MiB]:                     0
  HFX_MEM_INFO| Total compression factor ERI's disk:                        0.00
  HFX_MEM_INFO| Size of density/Fock matrix [MiB]:                             0
  HFX_MEM_INFO| Size of buffers [MiB]:                                         0
  HFX_MEM_INFO| Est. max. program size after HFX  [MiB]:                     275

  GPW_INFO| Density cutoff [a.u.]:                                         150.0
  GPW_INFO| Relative density cutoff [a.u.]:                                 25.0
  RI_INFO| Cholesky decomposition group size:                                 40
  RI_INFO| Number of groups for auxiliary basis functions                     40
  RI_INFO| Occupied  basis set size:                                           1
  RI_INFO| Virtual   basis set size:                                          59
  RI_INFO| Auxiliary basis set size:                                         182
  RI_INFO| Total memory for (ia|K) integrals:                           0.08 MiB
  RI_INFO| Group size for frequency integration:                              40
  INTEG_INFO| MINIMAX quadrature
  INTEG_INFO| Number of integration points:                                   14
  INTEG_INFO| Number of integration points per RPA group:                     14
  MATRIX_INFO| Number row processes:                                           5
  MATRIX_INFO| Number column processes:                                        8
  MATRIX_INFO| Row block size:                                                 5
  MATRIX_INFO| Column block size:                                             11
 Emin =  0.41115363501211843      Emax =   12.753528637529305      Range =   31.018888200157601     
  INTEG_INFO| Range for the minimax approximation:                       31.0189
  INTEG_INFO| Minimax parameters:                    Weights           Abscissas
                                                1.2620734719        0.1564079381
                                                1.3949384553        0.4856528110
                                                1.6782008234        0.8663567811
                                                2.1490207367        1.3403154621
                                                2.8694610552        1.9615735156
                                                3.9368885869        2.8038150829
                                                5.5034078834        3.9713632713
                                                7.8143213591        5.6170910725
                                               11.2941839697        7.9749345997
                                               16.7705895479       11.4279740958
                                               26.1606993452       16.6782320466
                                               45.0642069098       25.2678934346
                                               96.4633872352       41.7093371742
                                              368.2983383843       88.5237335024
  INTEG_INFO| Range for the minimax approximation:                       31.0189
  INTEG_INFO| Gap:                                                        0.4112
  INTEG_INFO| Minimax parameters of the time grid:   Weights           Abscissas
                                                0.0131323920        0.0051015368
                                                0.0313922801        0.0272380174
                                                0.0518183151        0.0686012633
                                                0.0761216071        0.1321585689
                                                0.1067968669        0.2229559926
                                                0.1474571580        0.3490645453
                                                0.2031635114        0.5228659103
                                                0.2807930907        0.7626722409
                                                0.3897653414        1.0948552208
                                                0.5437315972        1.5571166041
                                                0.7645702609        2.2044223575
                                                1.0932327246        3.1216824197
                                                1.6282370073        4.4576502415
                                                2.7545995880        6.5591921731
 
 tau scaled:   1.2407860221894737E-002   6.6247784505781795E-002  0.16685067920601993       0.32143354118390127       0.54226929705324567       0.84898810453366813        1.2717044573767493        1.8549568238889120        2.6628859083539864        3.7871891952603511        5.3615538567212742        7.5924962201455415        10.841811580574168        15.953141634944194     
 
 
 omega scaled:   6.4307692274655284E-002  0.19967791858541656       0.35620573976414593       0.55107557431194631       0.80650808127896589        1.1527987632476422        1.6328404449588056        2.3094874126597000        3.2789233496526564        4.6986530903022121        6.8573157315189146        10.388986234718180        17.148945593111026        36.396854814339591     
 
 
 weights_cos_tf_t_to_w
   6.3950405194664481E-002   6.3683808236701320E-002   6.4174569109963914E-002   6.3524677830477522E-002   6.4270138017931702E-002   6.3476556422337641E-002   6.4290055301037069E-002   6.3469358393364012E-002   6.4293073243997967E-002   6.3465857332054412E-002   6.4318749963834507E-002   6.3326424728253436E-002   6.4930263278389022E-002   5.9522388099255363E-002  0.15245048446714179       0.15341809070021387       0.15163604376404055       0.15399810777541209       0.15128425938834392       0.15418154319222480       0.15119645718935842       0.15423619234985714       0.15112958738384957       0.15436792733181398       0.15073986337237966       0.15594203220157166       0.13847507007245624        9.8412788077087338E-002  0.25259295299845896       0.25056431709686472       0.25430575602640210       0.24933239324174872       0.25507661760111855       0.24888468091601279       0.25538036855601132       0.24853042383717300       0.25605082079594360       0.24684030729618398       0.26316730994593512       0.30215953708295451       0.22245501250896421        2.6256006369828288E-002  0.36935804216011414       0.37290455906337933       0.36634059129693269       0.37512955488433158       0.36483656853172214       0.37622910053589292       0.36363746242587386       0.37846773136773670       0.35700667875889425       0.49927395090217291       0.38990540405896879       0.34174323280598123       0.17820541335104778       -1.2560158071777881E-002  0.52098445921092940       0.51526779904866404       0.52593227816747778       0.51141262089341744       0.52898651452325973       0.50819298001347035       0.53486547580746058       0.48559335190362973       0.45895291381676401       0.54023989474586898       0.47966794658260642       0.37849272158691155        4.9032675261408747E-002   5.1437591874731580E-003  0.71499873718055629       0.72385793053494696       0.70705176598928965       0.73078465094602962       0.69975788998037580       0.74380426416625745       0.62841202516247407       0.66714912757549294       0.74443877041481210       0.65055507247870881       0.58563314971804958       0.16854854880924761       -4.4442347681378828E-002  -1.8824302665540601E-003  0.99169810620637722       0.97818399823188651        1.0047332724979301       0.96405664517189760        1.0293300145982165       0.75797517545531945       0.92980954201318555        1.0262663512320656       0.87001919955167961       0.83813490569167104       0.36812581505614550        6.6708422011952304E-002   8.3324142432055562E-003  -1.4579289216230316E-003   1.3607584453383030        1.3814866511896025        1.3375778184634313        1.4205110101256142       0.91082191189997275        1.2897632537799022        1.4200051876744566        1.1594738382032004        1.1750512559708488       0.62971814155630634       0.11400198458216215       -2.5066128226786413E-002   4.9250881229302174E-003   2.2067553244270999E-002   1.9036330880546239        1.8706524471912296        1.9545031404756259        1.4596357869518386        1.7913536568330977        1.9726378006991112        1.5565084372728140        1.6399798899013962       0.96869329659163417       0.19981067930322735       -5.7526814746571085E-002  -1.4881124002060025E-002   2.6427613041608369E-002  -5.3721010156579081E-004   2.6330864291164415        2.6910125412305632        2.3989580279116600        2.4917299038305178        2.7516542331018861        2.1427571652573354        2.2909502301845750        1.4187442436600401       0.32320978228236541      -0.17215786251302440        3.7577004633939828E-002  0.10474444143078945       -4.2014330770228196E-003  -4.0575858498067185E-004   3.7385726039504736        3.6051351046896190        3.4394990444898981        3.8653951551726378        3.0834078978716941        3.2157899524510092        2.0197162560619866       0.48883598462616423      -0.46053975229660543        4.4699215012390825E-002  -2.7229748162010056E-002   8.7236159241367382E-003   2.5743893159123872E-003   3.3158112253735739E-004   5.2812450902261316        7.1597030362773753        5.5256933289609833        4.6338283017328337        4.5644183222358032        2.8005117544546581       0.69559526604172828      -0.81141262591982199        7.4067159096919355E-002   6.5961436301877063E-002  -5.3128757269197732E-002   4.8977791724124390E-003  -8.3792846312045841E-003  -2.6780274798700630E-004   8.0142007080438855        8.3515331827738137        7.2162199774596010        6.6265535671370763        3.6971093806007671       0.91961994552899951      -0.70533069181675956       0.10903820345116808        8.6166134705271361E-002   2.7855628577919248E-002  -1.9702430424468457E-002   4.3978109875905452E-003   1.5017357972528836E-003   7.1460983113582363E-004   12.848081621288008        12.320170080989280        9.9134228003124143        4.1186224290068809        1.1481141734441072      -0.42381214799717615       0.25533430831927661      -0.11142363654761543       -8.0506056988272984E-002  -2.0301402541467967E-002  -1.0230281168840049E-002   5.0054510753743987E-003  -1.2188103708358745E-003   2.6204031393586255E-004
 
 weights_cos_tf_w_to_t
   4.1296808741227292E-002   4.1287105363843869E-002   4.1302681562182982E-002   4.1278993823060224E-002   4.1314390546434189E-002   4.1262463867164326E-002   4.1336619088954328E-002   4.1234273753451234E-002   4.1371184801529695E-002   4.1190324247063544E-002   4.1434711410216332E-002   4.1076520864683774E-002   4.1718747869656798E-002   3.9664193794052123E-002   4.5628795158002153E-002   4.5660274878659667E-002   4.5609710291877756E-002   4.5686735543965060E-002   4.5571206526725125E-002   4.5741994603410982E-002   4.5494321239764143E-002   4.5846749612805833E-002   4.5345224815447213E-002   4.6101084300273411E-002   4.4688413304162053E-002   5.8093043582026320E-002   4.7856894968817808E-002   4.2075670404733118E-002   5.4930746892378389E-002   5.4869833012566240E-002   5.4967820057183293E-002   5.4817973519972307E-002   5.5044722683227632E-002   5.4703214580694999E-002   5.5217869475536918E-002   5.4423383969844946E-002   5.5792704901970171E-002   5.1729168469140982E-002   5.1898113804158902E-002   5.6703416199653675E-002   5.0372354159989891E-002   4.0856319400077661E-002   7.0274169583530041E-002   7.0379409293853903E-002   7.0209651965299741E-002   7.0471205818447957E-002   7.0068438620226547E-002   7.0698725184591860E-002   6.9664576728985780E-002   7.1645927923795857E-002   6.0942749494937561E-002   6.7508854152377951E-002   7.2521609952122618E-002   6.2190774718489605E-002   5.9225120720708811E-002   2.1959991784105411E-002   9.3949340566166925E-002   9.3773245197751459E-002   9.4058713680949702E-002   9.3612693997712604E-002   9.4323225611281022E-002   9.3118765361862282E-002   9.5564540003481413E-002   7.6969167767099472E-002   9.0478920628725562E-002   9.6816387074788124E-002   7.9791308819101903E-002   8.1216736943615267E-002   4.4478000227260540E-002   8.4366198223512021E-003  0.12870138182170024       0.12899596537102401       0.12851407511902360       0.12928713071483741       0.12796817114339987       0.13067307847357976       0.11370424497885409       0.12430074083463825       0.13273734047630487       0.10763632494623863       0.11233690262196652        6.8858369008835546E-002   1.5603916346682073E-002  -4.6034794583008883E-003  0.18024721839988225       0.17974424915106887       0.18058101712588176       0.17916693557787855       0.18198259259834579       0.16961185352578384       0.17369736090517413       0.18530302581076252       0.15246297116722049       0.15739313546425979        9.9317637451993790E-002   2.4563258330182455E-002  -1.7969268876149247E-002   4.3843547533523397E-003  0.25534908782186216       0.25624422433014465       0.25470561592029628       0.25761119016507361       0.24826959796906542       0.24545860659715957       0.26270189987655762       0.22295195199315243       0.22329216751332509       0.13944229605765274        3.5119449162773320E-002  -4.3817927526239614E-002   4.4854592300207123E-003  -3.1845828868636312E-003  0.37013932026792984       0.36843163625272590       0.37156996349492455       0.36369465466843598       0.34531108597930854       0.37939499503091090       0.33230969978918751       0.32115698329176784       0.19231967444095543        4.7424519696490842E-002  -5.1934966844781244E-002   6.6639602237470730E-003   6.1192876896470965E-003  -4.0192499951017396E-003  0.54744501792191358       0.55109148193845414       0.54328864706331792       0.66123917373417562       0.56454562531566965       0.50522078401972170       0.47023742759740150       0.25833664951263668        6.1238260741239968E-002  -4.1346410480627975E-002   8.8309850790560650E-003   1.0835427171710904E-002   3.6681526627056235E-003  -1.8866020673677379E-003  0.85900106511862784       0.84959376208760862       0.88117004158769097       0.89141402741386433       0.79773719948447863       0.70576483323029759       0.32640127954684750        7.6519492829374147E-002  -3.0976917252812167E-002   1.7167317235083711E-002  -1.0729341390664988E-002  -1.7725838669760578E-002  -5.2974388433527893E-003  -1.9426233588329370E-003   1.4648678561006276        1.4994950450679150        1.7307445812514983        1.3677105424050191        1.0833579445804686       0.35532478604398665       0.10803925347268314       -3.3545030329985036E-002  -1.7529038100728655E-002  0.11034641253904913        8.0809312422154573E-003   3.8610648973328577E-003   2.7949955449416120E-003   2.2444878333785184E-003   3.2044656459977507        2.8744068410227959        2.7921543688474499        1.5293282393099079       0.30599669671588653      -0.21540761186615032        3.4374669614925121E-002   1.8592909308250031E-002   9.2798066891118941E-002  -1.3439641740383606E-002   7.2645058850940450E-003  -2.0097281788508049E-002   2.8975829337394153E-003  -1.6558053617756908E-003   11.232038006522473        7.7732408729818303        1.2621145872802602      -0.42082847158568337       0.13278103420950252       -4.1579411335065791E-002  -2.9992870718314343E-002  0.43577971680780614       -1.0010836048497130E-002  -6.8905635832277618E-003   4.9507877726379865E-003  -3.3868445899411584E-003   7.2501049133770548E-003   1.8677713142640732E-003
[...]
  E_GW = E_SCF + Z * ( Sigc(E_SCF) + Sigx - vxc )
   
  The energy unit of the following table is eV.  Sigc_fit is a very conservative
  estimate of the statistical error of the fitting.
   
            MO      E_SCF       Sigc   Sigc_fit   Sigx-vxc          Z       E_GW
     1 ( occ )    -10.380      0.442      0.000     -5.807      1.000    -15.745
     2 ( vir )      0.808     -0.493      0.000      3.177      1.000      3.492
     3 ( vir )      2.789     -0.323      0.000      2.494      1.000      4.959
     4 ( vir )      7.900     -1.016      0.000      3.955      1.000     10.839
     5 ( vir )      9.000     -1.067      0.000      4.904      1.000     12.837
     6 ( vir )      9.000     -1.067      0.000      4.904      1.000     12.837
     7 ( vir )     17.151     -0.251      0.000      4.657      1.000     21.557
     8 ( vir )     17.645     -1.878      0.000      4.558      1.000     20.325
     9 ( vir )     17.645     -1.878      0.000      4.558      1.000     20.325
    10 ( vir )     22.938     -2.284      0.000      5.392      1.000     26.045
    11 ( vir )     23.237     -2.079      0.000      4.380      1.000     25.538
   
  GW HOMO-LUMO gap (eV)                                                    19.24
  

  Total RI-RPA Time=                                                    3.178093
  RI-RPA energy  =                                             -0.07882413417963

  Total EXX Time=                                                       1.591409
  EXX energy  =                                                -0.65670549917162

 ENERGY| Total FORCE_EVAL ( QS ) energy (a.u.):               -1.211531911280211


 -------------------------------------------------------------------------------
 -                                                                             -
 -                                DBCSR STATISTICS                             -
 -                                                                             -
 -------------------------------------------------------------------------------
 COUNTER                                    TOTAL       BLAS       SMM       ACC
 flops    30 x     1 x    30                 7200     100.0%      0.0%      0.0%
 flops    30 x    30 x    30               216000     100.0%      0.0%      0.0%
 flops    60 x    60 x    30               432000     100.0%      0.0%      0.0%
 flops    91 x    91 x    91            168799904     100.0%      0.0%      0.0%
 flops   182 x    60 x    30            403603200     100.0%      0.0%      0.0%
 flops   182 x    60 x    91            612131520     100.0%      0.0%      0.0%
 flops    30 x   120 x    30            886464000     100.0%      0.0%      0.0%
 flops    30 x   150 x    30           1354320000     100.0%      0.0%      0.0%
 flops    91 x    91 x    84           1558152960     100.0%      0.0%      0.0%
 flops    91 x    91 x    96           1780746240     100.0%      0.0%      0.0%
 flops inhomo. stacks                       10800     100.0%      0.0%      0.0%
 flops total                         6.764884E+09     100.0%      0.0%      0.0%
 flops max/rank                      1.335798E+09     100.0%      0.0%      0.0%
 matmuls inhomo. stacks                         6     100.0%      0.0%      0.0%
 matmuls total                              12412     100.0%      0.0%      0.0%
 number of processed stacks                  2680     100.0%      0.0%      0.0%
 average stack size                                     4.6       0.0       0.0
 marketing flops                     6.803733E+09
 -------------------------------------------------------------------------------
 # multiplications                            524
 max memory usage/rank             307.433472E+06
 # max total images/rank                        5
 # max 3D layers                                1
 # MPI messages exchanged                  634920
 MPI messages size (bytes):
  total size                       721.851136E+06
  min size                           0.000000E+00
  max size                         132.496000E+03
  average size                       1.136917E+03
 MPI breakdown and total messages size (bytes):
             size <=      128              623400                        0
       128 < size <=     8192                  36                    56160
      8192 < size <=    32768                1908                 27475200
     32768 < size <=   131072                6468                282522240
    131072 < size <=  4194304                3108                411797568
   4194304 < size <= 16777216                   0                        0
  16777216 < size                               0                        0
 -------------------------------------------------------------------------------

 *** WARNING in dbcsr_mm.F:278 :: Using a non-square number of MPI ranks ***
 *** might lead to poor performance. Used ranks: 40 Suggested: 36 81     ***

 -------------------------------------------------------------------------------
 -                                                                             -
 -                      DBCSR MESSAGE PASSING PERFORMANCE                      -
 -                                                                             -
 -------------------------------------------------------------------------------

 ROUTINE             CALLS      AVE VOLUME [Bytes]
 MP_Group               26
 MP_Bcast               11                     12.
 MP_Allreduce         2951                      8.
 MP_Alltoall          1840                  18314.
 MP_Wait             35664
 MP_ISend            33842                   2946.
 MP_IRecv            33842                     61.
 MP_Memory           52746
 -------------------------------------------------------------------------------


 MEMORY| Estimated peak process memory [MiB]                                 294

 -------------------------------------------------------------------------------
 ----                             MULTIGRID INFO                            ----
 -------------------------------------------------------------------------------
 count for grid        1:          17244          cutoff [a.u.]          200.00
 count for grid        2:          10885          cutoff [a.u.]           66.67
 count for grid        3:           3562          cutoff [a.u.]           22.22
 count for grid        4:           1129          cutoff [a.u.]            7.41
 total gridlevel count  :          32820

 -------------------------------------------------------------------------------
 -                                                                             -
 -                         MESSAGE PASSING PERFORMANCE                         -
 -                                                                             -
 -------------------------------------------------------------------------------

 ROUTINE             CALLS      AVE VOLUME [Bytes]
 MP_Group                5
 MP_Bcast              109                2490581.
 MP_Allreduce          342                   7894.
 MP_Sync                72
 MP_Alltoall           123                2301116.
 MP_ISendRecv          468                  35685.
 MP_Wait              1356
 MP_comm_split          10
 MP_ISend             5236                  30790.
 MP_IRecv             4146                  66733.
 -------------------------------------------------------------------------------


 -------------------------------------------------------------------------------
 -                                                                             -
 -                           R E F E R E N C E S                               -
 -                                                                             -
 -------------------------------------------------------------------------------
 
 CP2K version 7.0 (Development Version), the CP2K developers group (2018).
 CP2K is freely available from https://www.cp2k.org/ .

 Schuett, Ole; Messmer, Peter; Hutter, Juerg; VandeVondele, Joost. 
 Electronic Structure Calculations on Graphics Processing Units, John Wiley & Sons, Ltd, 173-190 (2016). 
 GPU-Accelerated Sparse Matrix-Matrix Multiplication for Linear Scaling Density Functional Theory.
 https://dx.doi.org/10.1002/9781118670712.ch8


 Del Ben, M; Schuett, O; Wentz, T; Messmer, P; Hutter, J;
 VandeVondele, J. 
 COMPUTER PHYSICS COMMUNICATIONS, 187, 120-129 (2015). 
 Enabling simulation at the fifth rung of DFT: Large scale RPA
 calculations with excellent time to solution.
 https://dx.doi.org/10.1016/j.cpc.2014.10.021


 Borstnik, U; VandeVondele, J; Weber, V; Hutter, J. 
 PARALLEL COMPUTING, 40 (5-6), 47-58 (2014). 
 Sparse matrix multiplication: The distributed block-compressed sparse
 row library.
 https://dx.doi.org/10.1016/j.parco.2014.03.012


 Hutter, J; Iannuzzi, M; Schiffmann, F; VandeVondele, J. 
 WILEY INTERDISCIPLINARY REVIEWS-COMPUTATIONAL MOLECULAR SCIENCE, 4 (1), 15-25 (2014). 
 CP2K: atomistic simulations of condensed matter systems.
 https://dx.doi.org/10.1002/wcms.1159


 Del Ben, M; Hutter, J; VandeVondele, J. 
 JOURNAL OF CHEMICAL THEORY AND COMPUTATION, 9 (6), 2654-2671 (2013). 
 Electron Correlation in the Condensed Phase from a Resolution of
 Identity Approach Based on the Gaussian and Plane Waves Scheme.
 https://dx.doi.org/10.1021/ct4002202


 Del Ben, M; Hutter, J; VandeVondele, J. 
 JOURNAL OF CHEMICAL THEORY AND COMPUTATION, 8 (11), 4177-4188 (2012). 
 Second-Order Moller-Plesset Perturbation Theory in the Condensed Phase:
 An Efficient and Massively Parallel Gaussian and Plane Waves Approach.
 https://dx.doi.org/10.1021/ct300531w


 Guidon, M; Hutter, J; VandeVondele, J. 
 JOURNAL OF CHEMICAL THEORY AND COMPUTATION, 5 (11), 3010-3021 (2009). 
 Robust Periodic Hartree-Fock Exchange for Large-Scale Simulations Using
 Gaussian Basis Sets.
 https://dx.doi.org/10.1021/ct900494g


 Guidon, M; Schiffmann, F; Hutter, J; VandeVondele, J. 
 JOURNAL OF CHEMICAL PHYSICS, 128 (21), 214104 (2008). 
 Ab initio molecular dynamics using hybrid density functionals.
 https://dx.doi.org/10.1063/1.2931945


 Frigo, M; Johnson, SG. 
 PROCEEDINGS OF THE IEEE, 93 (2), 216-231 (2005). 
 The design and implementation of FFTW3.
 https://dx.doi.org/10.1109/JPROC.2004.840301


 Lippert, G; Hutter, J; Parrinello, M. 
 THEORETICAL CHEMISTRY ACCOUNTS, 103 (2), 124-140 (1999). 
 The Gaussian and augmented-plane-wave density functional method for ab
 initio molecular dynamics simulations.
 https://dx.doi.org/10.1007/s002140050523


 Krack, M; Parrinello, M. 
 PHYSICAL CHEMISTRY CHEMICAL PHYSICS, 2 (10), 2105-2112 (2000). 
 All-electron ab-initio molecular dynamics.
 https://dx.doi.org/10.1039/b001167n


 Martyna, GJ; Tuckerman, ME. 
 JOURNAL OF CHEMICAL PHYSICS, 110 (6), 2810-2821 (1999). 
 A reciprocal space based method for treating long range interactions in
 ab initio and force-field-based calculations in clusters.
 https://dx.doi.org/10.1063/1.477923


 Perdew, JP; Burke, K; Ernzerhof, M. 
 PHYSICAL REVIEW LETTERS, 77 (18), 3865-3868 (1996). 
 Generalized gradient approximation made simple.
 https://dx.doi.org/10.1103/PhysRevLett.77.3865


 -------------------------------------------------------------------------------
 -                                                                             -
 -                                T I M I N G                                  -
 -                                                                             -
 -------------------------------------------------------------------------------
 SUBROUTINE                       CALLS  ASD         SELF TIME        TOTAL TIME
                                MAXIMUM       AVERAGE  MAXIMUM  AVERAGE  MAXIMUM
 CP2K                                 1  1.0    0.023    0.028    7.802    7.802
 qs_energies                          1  2.0    0.000    0.001    7.167    7.167
 mp2_main                             1  3.0    0.000    0.001    4.778    4.779
 mp2_gpw_main                         1  4.0    0.000    0.001    3.178    3.178
 rpa_ri_compute_en                    1  5.0    0.000    0.000    3.083    3.084
 rpa_num_int                          1  6.0    0.000    0.002    3.082    3.082
 qs_ks_build_kohn_sham_matrix         2  6.0    0.001    0.001    2.094    2.094
 scf_env_do_scf                       1  3.0    0.000    0.000    1.758    1.758
 scf_env_do_scf_inner_loop            1  4.0    0.000    0.001    1.758    1.758
 compute_vec_Sigma_x_minus_vxc_       1  4.0    0.000    0.000    1.591    1.591
 qs_ks_update_qs_env                  1  5.0    0.000    0.000    1.468    1.468
 rebuild_ks_matrix                    1  6.0    0.000    0.000    1.468    1.468
 pw_transfer                         39  8.7    0.003    0.014    1.385    1.441
 fft_wrap_pw1pw2                     31 10.0    0.000    0.001    1.354    1.405
 dbcsr_multiply_generic             524  9.8    0.019    0.022    1.111    1.247
 GW_postprocessing                    1  7.0    0.000    0.000    1.155    1.155
 compute_self_energy_im_time_gw       1  8.0    0.001    0.001    1.155    1.155
 rs_pw_transfer                      22  8.7    0.001    0.001    1.075    1.125
 fft_wrap_pw1pw2_200                 18 10.9    0.086    0.102    1.084    1.123
 fft3d_ps                            31 12.0    0.462    0.518    0.997    1.060
 integrate_four_center                1  5.0    0.002    0.003    0.959    0.960
 multiply_cannon                    524 10.8    0.075    0.085    0.563    0.789
 mp_sum_dm                           18  7.6    0.534    0.769    0.534    0.769
 mp_waitany                         624 10.6    0.442    0.621    0.442    0.621
 qs_rho_update_rho                    2  5.0    0.000    0.000    0.598    0.598
 calculate_rho_elec                   2  6.0    0.005    0.041    0.597    0.597
 density_rs2pw                        2  7.0    0.000    0.000    0.545    0.564
 qs_vxc_create                        2  7.0    0.000    0.000    0.543    0.544
 xc_vxc_pw_create                     1  9.0    0.006    0.008    0.543    0.544
 calc_screening_functions             1  6.0    0.211    0.256    0.428    0.536
 qs_init_subsys                       1  2.0    0.002    0.003    0.529    0.529
 mp_alltoall_z22v                    31 14.0    0.401    0.525    0.401    0.525
 mp_waitall_1                     36312 13.4    0.281    0.515    0.281    0.515
 mp_sum_l                          2580 10.8    0.334    0.509    0.334    0.509
 sum_up_and_integrate                 2  7.0    0.002    0.003    0.472    0.506
 integrate_v_rspace                   2  8.0    0.002    0.031    0.469    0.505
 rs_pw_transfer_PW2RS_200             5  9.6    0.223    0.286    0.435    0.495
 qs_env_setup                         1  3.0    0.000    0.000    0.473    0.489
 qs_env_rebuild_pw_env                2  3.5    0.000    0.000    0.472    0.489
 pw_env_rebuild                       1  5.0    0.001    0.001    0.472    0.488
 compute_self_energy_im_time_gw     154  9.0    0.000    0.000    0.420    0.485
 potential_pw2rs                      2  9.0    0.000    0.000    0.463    0.464
 rs_pw_transfer_RS2PW_200             5  9.2    0.213    0.284    0.431    0.456
 pw_grid_setup                        5  6.0    0.000    0.000    0.449    0.449
 pw_grid_setup_internal               5  7.0    0.008    0.011    0.449    0.449
 powell_optimize                  75896  7.0    0.334    0.445    0.334    0.445
 multiply_cannon_metrocomm3        9663 11.9    0.013    0.015    0.186    0.435
 rpa_num_int_im_t_alloc_mat_gw        1  7.0    0.000    0.000    0.015    0.403
 allocate_matrices_gw_im_time         1  8.0    0.000    0.000    0.015    0.403
 get_mat_3c_overl_int_gw              1  9.0    0.000    0.000    0.014    0.403
 get_l_sq_wghts_cos_tf_t_to_w         1  7.0    0.143    0.401    0.402    0.403
 fill_mat_3c_overl_int_gw             1 10.0    0.000    0.000    0.012    0.401
 cp_fm_copy_general                   2  8.0    0.000    0.000    0.390    0.400
 cp_fm_start_copy_general             2  9.0    0.000    0.000    0.389    0.400
 rpa_num_int_im_t_alloc_mat_24        1  7.0    0.000    0.000    0.389    0.400
 mp_allgather_i                       4 10.0    0.389    0.399    0.389    0.399
 GW3c_fill_mat                        1 11.0    0.005    0.181    0.010    0.398
 mp_sum_dv                           40  8.0    0.276    0.392    0.276    0.392
 yz_to_x                             16 12.9    0.063    0.085    0.309    0.392
 mp_sum_d                           789  5.1    0.241    0.387    0.241    0.387
 get_l_sq_wghts_sin_tf_t_to_w         1  7.0    0.129    0.378    0.380    0.380
 get_l_sq_wghts_cos_tf_w_to_t         1  7.0    0.128    0.376    0.378    0.379
 make_m2s                          1048 10.8    0.020    0.024    0.328    0.371
 prepare_gapw_den                     2  7.0    0.000    0.000    0.356    0.365
 pw_poisson_solve                     3  6.0    0.042    0.054    0.357    0.357
 put_rho0_on_grid                     2  8.0    0.002    0.004    0.329    0.338
 init_scf_run                         1  3.0    0.000    0.000    0.328    0.328
 compute_self_energy_im_time_gw     154  9.0    0.000    0.000    0.323    0.327
 scf_env_initial_rho_setup            1  4.0    0.000    0.000    0.324    0.324
 compute_self_energy_im_time_gw     154  9.0    0.000    0.000    0.270    0.321
 pw_grid_sort                         5  8.0    0.173    0.214    0.261    0.319
 integrate_four_center_load           1  6.0    0.000    0.000    0.177    0.318
 hfx_load_balance                     1  7.0    0.000    0.000    0.177    0.318
 hfx_load_balance_range               1  8.0    0.000    0.002    0.170    0.312
 scf_post_calculation_gpw             1  3.0    0.000    0.000    0.294    0.299
 calc_pair_dist_radii                 1  6.0    0.103    0.124    0.220    0.281
 multiply_cannon_multrec           9663 11.9    0.038    0.277    0.054    0.280
 multiply_cannon_metrocomm1        9663 11.9    0.006    0.007    0.039    0.280
 pw_poisson_rebuild                   3  7.0    0.002    0.005    0.257    0.276
 xc_rho_set_and_dset_create           1 10.0    0.004    0.007    0.238    0.275
 MTin_create_screen_fn                1 10.0    0.006    0.008    0.255    0.272
 compute_mat_P_omega                  1  7.0    0.000    0.000    0.267    0.267
 x_to_yz                             15 13.1    0.068    0.080    0.223    0.265
 make_images                       1048 11.8    0.028    0.031    0.232    0.242
 integrate_vhg0_rspace                2  7.0    0.003    0.003    0.218    0.225
 fft_wrap_pw1pw2_400                  1 13.0    0.010    0.019    0.189    0.219
 dbcsr_trace_a_b_d                  311 10.0    0.001    0.005    0.123    0.218
 compute_self_energy_im_time_gw     154  9.0    0.000    0.000    0.119    0.214
 write_available_results              1  4.0    0.000    0.000    0.197    0.198
 write_mo_free_results                1  5.0    0.003    0.005    0.197    0.198
 pw_gather_p                         16 11.9    0.143    0.178    0.143    0.178
 rs_grid_zero                        20  8.7    0.135    0.172    0.135    0.172
 mp_sync                             72  8.7    0.137    0.168    0.137    0.168
 -------------------------------------------------------------------------------

 The number of warnings for this run is : 2
 
 -------------------------------------------------------------------------------
  **** **** ******  **  PROGRAM ENDED AT                 2019-05-31 16:23:51.656
 ***** ** ***  *** **   PROGRAM RAN ON                                    tcopt4
 **    ****   ******    PROGRAM RAN BY                                   wilhelm
 ***** **    ** ** **   PROGRAM PROCESS ID                                 76635
  **** **  *******  **  PROGRAM STOPPED IN /data/wilhelm/2_job_test/11_GW100/3_c
                                           alcs/06_H2
