 DBCSR| CPU Multiplication driver                                           BLAS
 DBCSR| Multrec recursion limit                                              512
 DBCSR| Multiplication stack size                                           1000
 DBCSR| Maximum elements for images                                    UNLIMITED
 DBCSR| Multiplicative factor virtual images                                   1
 DBCSR| Use multiplication densification                                       T
 DBCSR| Multiplication size stacks                                             3
 DBCSR| Number of 3D layers                                               SINGLE
 DBCSR| Use MPI memory allocation                                              T
 DBCSR| Use RMA algorithm                                                      F
 DBCSR| Use Communication thread                                               T
 DBCSR| Communication thread load                                             87


  **** **** ******  **  PROGRAM STARTED AT               2019-06-07 03:12:35.574
 ***** ** ***  *** **   PROGRAM STARTED ON                                tcopt4
 **    ****   ******    PROGRAM STARTED BY                               wilhelm
 ***** **    ** ** **   PROGRAM PROCESS ID                                 51916
  **** **  *******  **  PROGRAM STARTED IN /data/wilhelm/2_job_test/11_GW100/3_c
                                           alcs/06_H2

 CP2K| version string:                    CP2K version 7.0 (Development Version)
 CP2K| source code revision number:                                  git:bc2813a
 CP2K| cp2kflags: libint fftw3 libxc pexsi elpa=201705 parallel mpi3 scalapack q
 CP2K|            uip libderiv_max_am1=5 libint_max_am=6
 CP2K| is freely available from                            https://www.cp2k.org/
 CP2K| Program compiled at                         Sun Jun  2 14:38:23 CEST 2019
 CP2K| Program compiled on                                                tcopt4
 CP2K| Program compiled for                            local_valgrind_March_2019
 CP2K| Data directory path              /data/wilhelm/1_git_repository/cp2k/data
 CP2K| Input file name                                                    GW.inp

 GLOBAL| Force Environment number                                              1
 GLOBAL| Basis set file name                              BASIS_def2_QZVP_RI_ALL
 GLOBAL| Potential file name                                           POTENTIAL
 GLOBAL| MM Potential file name                                     MM_POTENTIAL
 GLOBAL| Coordinate file name                                          06_H2.xyz
 GLOBAL| Method name                                                        CP2K
 GLOBAL| Project name                                                   ALL_ELEC
 GLOBAL| Preferred FFT library                                             FFTW3
 GLOBAL| Preferred diagonalization lib.                                       SL
 GLOBAL| Run type                                                         ENERGY
 GLOBAL| All-to-all communication in single precision                          F
 GLOBAL| FFTs using library dependent lengths                                  F
 GLOBAL| Global print level                                               MEDIUM
 GLOBAL| MPI I/O enabled                                                       T
 GLOBAL| Total number of message passing processes                            24
 GLOBAL| Number of threads for this process                                    1
 GLOBAL| This output is from process                                           0
 GLOBAL| CPU model name :  Intel(R) Xeon(R) CPU E5-2697 v3 @ 2.60GHz

 MEMORY| system memory details [Kb]
 MEMORY|                        rank 0           min           max       average
 MEMORY| MemTotal            396954008     396954008     396954008     396954008
 MEMORY| MemFree             345248508     345248508     345248508     345248508
 MEMORY| Buffers                274188        274188        274188        274188
 MEMORY| Cached               34609316      34609316      34609316      34609316
 MEMORY| Slab                  1199996       1199996       1199996       1199996
 MEMORY| SReclaimable          1057644       1057644       1057644       1057644
 MEMORY| MemLikelyFree       381189656     381189656     381189656     381189656


 *** Fundamental physical constants (SI units) ***

 *** Literature: B. J. Mohr and B. N. Taylor,
 ***             CODATA recommended values of the fundamental physical
 ***             constants: 2006, Web Version 5.1
 ***             http://physics.nist.gov/constants

 Speed of light in vacuum [m/s]                             2.99792458000000E+08
 Magnetic constant or permeability of vacuum [N/A**2]       1.25663706143592E-06
 Electric constant or permittivity of vacuum [F/m]          8.85418781762039E-12
 Planck constant (h) [J*s]                                  6.62606896000000E-34
 Planck constant (h-bar) [J*s]                              1.05457162825177E-34
 Elementary charge [C]                                      1.60217648700000E-19
 Electron mass [kg]                                         9.10938215000000E-31
 Electron g factor [ ]                                     -2.00231930436220E+00
 Proton mass [kg]                                           1.67262163700000E-27
 Fine-structure constant                                    7.29735253760000E-03
 Rydberg constant [1/m]                                     1.09737315685270E+07
 Avogadro constant [1/mol]                                  6.02214179000000E+23
 Boltzmann constant [J/K]                                   1.38065040000000E-23
 Atomic mass unit [kg]                                      1.66053878200000E-27
 Bohr radius [m]                                            5.29177208590000E-11

 *** Conversion factors ***

 [u] -> [a.u.]                                              1.82288848426455E+03
 [Angstrom] -> [Bohr] = [a.u.]                              1.88972613288564E+00
 [a.u.] = [Bohr] -> [Angstrom]                              5.29177208590000E-01
 [a.u.] -> [s]                                              2.41888432650478E-17
 [a.u.] -> [fs]                                             2.41888432650478E-02
 [a.u.] -> [J]                                              4.35974393937059E-18
 [a.u.] -> [N]                                              8.23872205491840E-08
 [a.u.] -> [K]                                              3.15774647902944E+05
 [a.u.] -> [kJ/mol]                                         2.62549961709828E+03
 [a.u.] -> [kcal/mol]                                       6.27509468713739E+02
 [a.u.] -> [Pa]                                             2.94210107994716E+13
 [a.u.] -> [bar]                                            2.94210107994716E+08
 [a.u.] -> [atm]                                            2.90362800883016E+08
 [a.u.] -> [eV]                                             2.72113838565563E+01
 [a.u.] -> [Hz]                                             6.57968392072181E+15
 [a.u.] -> [1/cm] (wave numbers)                            2.19474631370540E+05
 [a.u./Bohr**2] -> [1/cm]                                   5.14048714338585E+03
 

 CELL_TOP| Volume [angstrom^3]:                                         4096.000
 CELL_TOP| Vector a [angstrom    16.000     0.000     0.000    |a| =      16.000
 CELL_TOP| Vector b [angstrom     0.000    16.000     0.000    |b| =      16.000
 CELL_TOP| Vector c [angstrom     0.000     0.000    16.000    |c| =      16.000
 CELL_TOP| Angle (b,c), alpha [degree]:                                   90.000
 CELL_TOP| Angle (a,c), beta  [degree]:                                   90.000
 CELL_TOP| Angle (a,b), gamma [degree]:                                   90.000
 CELL_TOP| Numerically orthorhombic:                                         YES

 GENERATE|  Preliminary Number of Bonds generated:                             0
 GENERATE|  Achieved consistency in connectivity generation.

 CELL| Volume [angstrom^3]:                                             4096.000
 CELL| Vector a [angstrom]:      16.000     0.000     0.000    |a| =      16.000
 CELL| Vector b [angstrom]:       0.000    16.000     0.000    |b| =      16.000
 CELL| Vector c [angstrom]:       0.000     0.000    16.000    |c| =      16.000
 CELL| Angle (b,c), alpha [degree]:                                       90.000
 CELL| Angle (a,c), beta  [degree]:                                       90.000
 CELL| Angle (a,b), gamma [degree]:                                       90.000
 CELL| Numerically orthorhombic:                                             YES

 CELL_REF| Volume [angstrom^3]:                                         4096.000
 CELL_REF| Vector a [angstrom    16.000     0.000     0.000    |a| =      16.000
 CELL_REF| Vector b [angstrom     0.000    16.000     0.000    |b| =      16.000
 CELL_REF| Vector c [angstrom     0.000     0.000    16.000    |c| =      16.000
 CELL_REF| Angle (b,c), alpha [degree]:                                   90.000
 CELL_REF| Angle (a,c), beta  [degree]:                                   90.000
 CELL_REF| Angle (a,b), gamma [degree]:                                   90.000
 CELL_REF| Numerically orthorhombic:                                         YES

 *******************************************************************************
 *******************************************************************************
 **                                                                           **
 **     #####                         ##              ##                      **
 **    ##   ##            ##          ##              ##                      **
 **   ##     ##                       ##            ######                    **
 **   ##     ##  ##   ##  ##   #####  ##  ##   ####   ##    #####    #####    **
 **   ##     ##  ##   ##  ##  ##      ## ##   ##      ##   ##   ##  ##   ##   **
 **   ##  ## ##  ##   ##  ##  ##      ####     ###    ##   ######   ######    **
 **    ##  ###   ##   ##  ##  ##      ## ##      ##   ##   ##       ##        **
 **     #######   #####   ##   #####  ##  ##  ####    ##    #####   ##        **
 **           ##                                                    ##        **
 **                                                                           **
 **                                                ... make the atoms dance   **
 **                                                                           **
 **            Copyright (C) by CP2K developers group (2000 - 2019)           **
 **                                                                           **
 *******************************************************************************

 DFT| Spin restricted Kohn-Sham (RKS) calculation                            RKS
 DFT| Multiplicity                                                             1
 DFT| Number of spin states                                                    1
 DFT| Charge                                                                   0
 DFT| Self-interaction correction (SIC)                                       NO
 DFT| Cutoffs: density                                              1.000000E-10
 DFT|          gradient                                             1.000000E-10
 DFT|          tau                                                  1.000000E-10
 DFT|          cutoff_smoothing_range                               0.000000E+00
 DFT| XC density smoothing                                                  NONE
 DFT| XC derivatives                                                          PW
 FUNCTIONAL| ROUTINE=NEW
 FUNCTIONAL| PBE:
 FUNCTIONAL| J.P.Perdew, K.Burke, M.Ernzerhof, Phys. Rev. Letter, vol. 77, n 18,
 FUNCTIONAL|  pp. 3865-3868, (1996){spin unpolarized}                           

 QS| Method:                                                                GAPW
 QS| Density plane wave grid type                        NON-SPHERICAL FULLSPACE
 QS| Number of grid levels:                                                    4
 QS| Density cutoff [a.u.]:                                                200.0
 QS| Multi grid cutoff [a.u.]: 1) grid level                               200.0
 QS|                           2) grid level                                66.7
 QS|                           3) grid level                                22.2
 QS|                           4) grid level                                 7.4
 QS| Grid level progression factor:                                          3.0
 QS| Relative density cutoff [a.u.]:                                        25.0
 QS| Consistent realspace mapping and integration 
 QS| Interaction thresholds: eps_pgf_orb:                                1.0E-05
 QS|                         eps_filter_matrix:                          0.0E+00
 QS|                         eps_core_charge:                            1.0E-12
 QS|                         eps_rho_gspace:                             1.0E-10
 QS|                         eps_rho_rspace:                             1.0E-10
 QS|                         eps_gvg_rspace:                             1.0E-05
 QS|                         eps_ppl:                                    1.0E-02
 QS|                         eps_ppnl:                                   1.0E-07
 QS| GAPW|                   eps_fit:                                    1.0E-04
 QS| GAPW|                   eps_iso:                                    1.0E-12
 QS| GAPW|                   eps_svd:                                    1.0E-08
 QS| GAPW|                   eps_cpc:                                    1.0E-10
 QS| GAPW|   atom-r-grid: quadrature:                 GC_LOG                        
 QS| GAPW|      atom-s-grid:  max l :                                          6
 QS| GAPW|      max_l_rho0 :                                                   2


 ATOMIC KIND INFORMATION

  1. Atomic kind: H                                     Number of atoms:       2

     Orbital Basis Set                                                 def2-QZVP

       Number of orbital shell sets:                                          10
       Number of orbital shells:                                              10
       Number of primitive Cartesian functions:                               13
       Number of Cartesian basis functions:                                   35
       Number of spherical basis functions:                                   30
       Norm type:                                                              2

       Normalised Cartesian orbitals:

                        Set   Shell   Orbital            Exponent    Coefficient

                          1       1    1s              190.691690       0.195396
                                                        28.605532       0.363661
                                                         6.509594       0.612837
                                                         1.841246       0.914889

                          2       1    1s                0.598537       0.484985

                          3       1    1s                0.213976       0.224225

                          4       1    1s                0.080316       0.107526

                          5       1    1px               2.292000       4.019836
                          5       1    1py               2.292000       4.019836
                          5       1    1pz               2.292000       4.019836

                          6       1    1px               0.838000       1.142865
                          6       1    1py               0.838000       1.142865
                          6       1    1pz               0.838000       1.142865

                          7       1    1px               0.292000       0.305963
                          7       1    1py               0.292000       0.305963
                          7       1    1pz               0.292000       0.305963

                          8       1    1dx2              2.062000       5.840024
                          8       1    1dxy              2.062000      10.115218
                          8       1    1dxz              2.062000      10.115218
                          8       1    1dy2              2.062000       5.840024
                          8       1    1dyz              2.062000      10.115218
                          8       1    1dz2              2.062000       5.840024

                          9       1    1dx2              0.662000       0.799670
                          9       1    1dxy              0.662000       1.385069
                          9       1    1dxz              0.662000       1.385069
                          9       1    1dy2              0.662000       0.799670
                          9       1    1dyz              0.662000       1.385069
                          9       1    1dz2              0.662000       0.799670

                         10       1    1fx3              1.397000       3.123535
                         10       1    1fx2y             1.397000       6.984436
                         10       1    1fx2z             1.397000       6.984436
                         10       1    1fxy2             1.397000       6.984436
                         10       1    1fxyz             1.397000      12.097399
                         10       1    1fxz2             1.397000       6.984436
                         10       1    1fy3              1.397000       3.123535
                         10       1    1fy2z             1.397000       6.984436
                         10       1    1fyz2             1.397000       6.984436
                         10       1    1fz3              1.397000       3.123535

     RI Auxiliary Basis Set                                                RI-5Z

       Number of orbital shell sets:                                          21
       Number of orbital shells:                                              21
       Number of primitive Cartesian functions:                               21
       Number of Cartesian basis functions:                                  126
       Number of spherical basis functions:                                   91
       Norm type:                                                              2

       Normalised Cartesian orbitals:

                        Set   Shell   Orbital            Exponent    Coefficient

                          1       1    1s               23.321500       7.563581

                          2       1    1s                4.922970       2.355486

                          3       1    1s                1.775100       1.096042

                          4       1    1s                0.994218       0.709613

                          5       1    1s                0.506054       0.427620

                          6       1    1s                0.236911       0.242019

                          7       1    1px               5.974580      13.314483
                          7       1    1py               5.974580      13.314483
                          7       1    1pz               5.974580      13.314483

                          8       1    1px               2.052170       3.501118
                          8       1    1py               2.052170       3.501118
                          8       1    1pz               2.052170       3.501118

                          9       1    1px               1.248660       1.881462
                          9       1    1py               1.248660       1.881462
                          9       1    1pz               1.248660       1.881462

                         10       1    1px               0.805545       1.087808
                         10       1    1py               0.805545       1.087808
                         10       1    1pz               0.805545       1.087808

                         11       1    1px               0.347892       0.380843
                         11       1    1py               0.347892       0.380843
                         11       1    1pz               0.347892       0.380843

                         12       1    1dx2              3.858160      17.481346
                         12       1    1dxy              3.858160      30.278579
                         12       1    1dxz              3.858160      30.278579
                         12       1    1dy2              3.858160      17.481346
                         12       1    1dyz              3.858160      30.278579
                         12       1    1dz2              3.858160      17.481346

                         13       1    1dx2              1.710630       4.211459
                         13       1    1dxy              1.710630       7.294461
                         13       1    1dxz              1.710630       7.294461
                         13       1    1dy2              1.710630       4.211459
                         13       1    1dyz              1.710630       7.294461
                         13       1    1dz2              1.710630       4.211459

                         14       1    1dx2              0.979237       1.586584
                         14       1    1dxy              0.979237       2.748044
                         14       1    1dxz              0.979237       2.748044
                         14       1    1dy2              0.979237       1.586584
                         14       1    1dyz              0.979237       2.748044
                         14       1    1dz2              0.979237       1.586584

                         15       1    1dx2              0.625366       0.723843
                         15       1    1dxy              0.625366       1.253733
                         15       1    1dxz              0.625366       1.253733
                         15       1    1dy2              0.625366       0.723843
                         15       1    1dyz              0.625366       1.253733
                         15       1    1dz2              0.625366       0.723843

                         16       1    1fx3              3.101510      18.792914
                         16       1    1fx2y             3.101510      42.022232
                         16       1    1fx2z             3.101510      42.022232
                         16       1    1fxy2             3.101510      42.022232
                         16       1    1fxyz             3.101510      72.784641
                         16       1    1fxz2             3.101510      42.022232
                         16       1    1fy3              3.101510      18.792914
                         16       1    1fy2z             3.101510      42.022232
                         16       1    1fyz2             3.101510      42.022232
                         16       1    1fz3              3.101510      18.792914

                         17       1    1fx3              1.198110       2.210915
                         17       1    1fx2y             1.198110       4.943756
                         17       1    1fx2z             1.198110       4.943756
                         17       1    1fxy2             1.198110       4.943756
                         17       1    1fxyz             1.198110       8.562836
                         17       1    1fxz2             1.198110       4.943756
                         17       1    1fy3              1.198110       2.210915
                         17       1    1fy2z             1.198110       4.943756
                         17       1    1fyz2             1.198110       4.943756
                         17       1    1fz3              1.198110       2.210915

                         18       1    1fx3              0.572873       0.420326
                         18       1    1fx2y             0.572873       0.939876
                         18       1    1fx2z             0.572873       0.939876
                         18       1    1fxy2             0.572873       0.939876
                         18       1    1fxyz             0.572873       1.627914
                         18       1    1fxz2             0.572873       0.939876
                         18       1    1fy3              0.572873       0.420326
                         18       1    1fy2z             0.572873       0.939876
                         18       1    1fyz2             0.572873       0.939876
                         18       1    1fz3              0.572873       0.420326

                         19       1    1gx4              2.987800      22.576266
                         19       1    1gx3y             2.987800      59.731185
                         19       1    1gx3z             2.987800      59.731185
                         19       1    1gx2y2            2.987800      77.112629
                         19       1    1gx2yz            2.987800     133.562991
                         19       1    1gx2z2            2.987800      77.112629
                         19       1    1gxy3             2.987800      59.731185
                         19       1    1gxy2z            2.987800     133.562991
                         19       1    1gxyz2            2.987800     133.562991
                         19       1    1gxz3             2.987800      59.731185
                         19       1    1gy4              2.987800      22.576266
                         19       1    1gy3z             2.987800      59.731185
                         19       1    1gy2z2            2.987800      77.112629
                         19       1    1gyz3             2.987800      59.731185
                         19       1    1gz4              2.987800      22.576266

                         20       1    1gx4              1.231920       1.974865
                         20       1    1gx3y             1.231920       5.225001
                         20       1    1gx3z             1.231920       5.225001
                         20       1    1gx2y2            1.231920       6.745447
                         20       1    1gx2yz            1.231920      11.683456
                         20       1    1gx2z2            1.231920       6.745447
                         20       1    1gxy3             1.231920       5.225001
                         20       1    1gxy2z            1.231920      11.683456
                         20       1    1gxyz2            1.231920      11.683456
                         20       1    1gxz3             1.231920       5.225001
                         20       1    1gy4              1.231920       1.974865
                         20       1    1gy3z             1.231920       5.225001
                         20       1    1gy2z2            1.231920       6.745447
                         20       1    1gyz3             1.231920       5.225001
                         20       1    1gz4              1.231920       1.974865

                         21       1    1hx5              3.247390      34.106027
                         21       1    1hx4y             3.247390     102.318080
                         21       1    1hx4z             3.247390     102.318080
                         21       1    1hx3y2            3.247390     156.293448
                         21       1    1hx3yz            3.247390     270.708193
                         21       1    1hx3z2            3.247390     156.293448
                         21       1    1hx2y3            3.247390     156.293448
                         21       1    1hx2y2z           3.247390     349.482775
                         21       1    1hx2yz2           3.247390     349.482775
                         21       1    1hx2z3            3.247390     156.293448
                         21       1    1hxy4             3.247390     102.318080
                         21       1    1hxy3z            3.247390     270.708193
                         21       1    1hxy2z2           3.247390     349.482775
                         21       1    1hxyz3            3.247390     270.708193
                         21       1    1hxz4             3.247390     102.318080
                         21       1    1hy5              3.247390      34.106027
                         21       1    1hy4z             3.247390     102.318080
                         21       1    1hy3z2            3.247390     156.293448
                         21       1    1hy2z3            3.247390     156.293448
                         21       1    1hyz4             3.247390     102.318080
                         21       1    1hz5              3.247390      34.106027

     The atoms of this atomic kind are PAW atoms (GAPW):
       Hard Gaussian function radius:                                      1.200
       Rho0 radius:                                                        1.200
       Maximum GTO radius used for PAW projector construction:            24.566

     GAPW Soft Basis Set                                          def2-QZVP_soft

       Number of orbital shell sets:                                          10
       Number of orbital shells:                                              10
       Number of primitive Cartesian functions:                               10
       Number of Cartesian basis functions:                                   35
       Number of spherical basis functions:                                   30
       Norm type:                                                              2

       Normalised Cartesian orbitals:

                        Set   Shell   Orbital            Exponent    Coefficient

                          1       1    1s                1.841246       0.914889

                          2       1    1s                0.598537       0.484985

                          3       1    1s                0.213976       0.224225

                          4       1    1s                0.080316       0.107526

                          5       1    1px               2.292000       4.019836
                          5       1    1py               2.292000       4.019836
                          5       1    1pz               2.292000       4.019836

                          6       1    1px               0.838000       1.142865
                          6       1    1py               0.838000       1.142865
                          6       1    1pz               0.838000       1.142865

                          7       1    1px               0.292000       0.305963
                          7       1    1py               0.292000       0.305963
                          7       1    1pz               0.292000       0.305963

                          8       1    1dx2              2.062000       5.840024
                          8       1    1dxy              2.062000      10.115218
                          8       1    1dxz              2.062000      10.115218
                          8       1    1dy2              2.062000       5.840024
                          8       1    1dyz              2.062000      10.115218
                          8       1    1dz2              2.062000       5.840024

                          9       1    1dx2              0.662000       0.799670
                          9       1    1dxy              0.662000       1.385069
                          9       1    1dxz              0.662000       1.385069
                          9       1    1dy2              0.662000       0.799670
                          9       1    1dyz              0.662000       1.385069
                          9       1    1dz2              0.662000       0.799670

                         10       1    1fx3              1.397000       3.123535
                         10       1    1fx2y             1.397000       6.984436
                         10       1    1fx2z             1.397000       6.984436
                         10       1    1fxy2             1.397000       6.984436
                         10       1    1fxyz             1.397000      12.097399
                         10       1    1fxz2             1.397000       6.984436
                         10       1    1fy3              1.397000       3.123535
                         10       1    1fy2z             1.397000       6.984436
                         10       1    1fyz2             1.397000       6.984436
                         10       1    1fz3              1.397000       3.123535

     AE Potential information for                                            ALL

       Description:                                       All-electron potential
                                          Krack, Parrinello, PCCP 2, 2105 (2000)

       Gaussian exponent of the core charge distribution:              12.500000
       Electronic configuration (s p d ...):                           1   0   0


 MOLECULE KIND INFORMATION


 All atoms are their own molecule, skipping detailed information


 TOTAL NUMBERS AND MAXIMUM NUMBERS

  Total number of            - Atomic kinds:                                   1
                             - Atoms:                                          2
                             - Shell sets:                                    20
                             - Shells:                                        20
                             - Primitive Cartesian functions:                 26
                             - Cartesian basis functions:                     70
                             - Spherical basis functions:                     60

  Maximum angular momentum of the orbital basis functions:                     3


 MODULE QUICKSTEP:  ATOMIC COORDINATES IN angstrom

  Atom  Kind  Element       X           Y           Z          Z(eff)       Mass

       1     1 H    1    8.000000    8.000000    7.629280      1.00       1.0079
       2     1 H    1    8.000000    8.000000    8.370720      1.00       1.0079




 SCF PARAMETERS         Density guess:                                   RESTART
                        --------------------------------------------------------
                        max_scf:                                             200
                        max_scf_history:                                       0
                        max_diis:                                              4
                        --------------------------------------------------------
                        eps_scf:                                        1.00E-06
                        eps_scf_history:                                0.00E+00
                        eps_diis:                                       1.00E-01
                        eps_eigval:                                     1.00E-05
                        --------------------------------------------------------
                        level_shift [a.u.]:                                 0.00
                        --------------------------------------------------------
                        Mixing method:                           DIRECT_P_MIXING
                        --------------------------------------------------------
                        No outer SCF

 PW_GRID| Information for grid number                                          1
 PW_GRID| Grid distributed over                                    24 processors
 PW_GRID| Real space group dimensions                                    24    1
 PW_GRID| the grid is blocked:                                                NO
 PW_GRID| Cutoff [a.u.]                                                    400.0
 PW_GRID| spherical cutoff:                                                   NO
 PW_GRID|   Bounds   1           -144     143                Points:         288
 PW_GRID|   Bounds   2           -144     143                Points:         288
 PW_GRID|   Bounds   3           -144     143                Points:         288
 PW_GRID| Volume element (a.u.^3)  0.1157E-02     Volume (a.u.^3)     27641.1785
 PW_GRID| Grid span                                                    FULLSPACE
 PW_GRID|   Distribution                         Average         Max         Min
 PW_GRID|   G-Vectors                           995328.0      995328      995328
 PW_GRID|   G-Rays                                3456.0        3456        3456
 PW_GRID|   Real Space Points                   995328.0      995328      995328

 PW_GRID| Information for grid number                                          2
 PW_GRID| Grid distributed over                                    24 processors
 PW_GRID| Real space group dimensions                                    24    1
 PW_GRID| the grid is blocked:                                                NO
 PW_GRID| Cutoff [a.u.]                                                    200.0
 PW_GRID| spherical cutoff:                                                   NO
 PW_GRID|   Bounds   1           -100      99                Points:         200
 PW_GRID|   Bounds   2           -100      99                Points:         200
 PW_GRID|   Bounds   3           -100      99                Points:         200
 PW_GRID| Volume element (a.u.^3)  0.3455E-02     Volume (a.u.^3)     27641.1785
 PW_GRID| Grid span                                                    FULLSPACE
 PW_GRID|   Distribution                         Average         Max         Min
 PW_GRID|   G-Vectors                           333333.3      333600      333200
 PW_GRID|   G-Rays                                1666.7        1668        1666
 PW_GRID|   Real Space Points                   333333.3      360000      320000

 PW_GRID| Information for grid number                                          3
 PW_GRID| Grid distributed over                                    24 processors
 PW_GRID| Real space group dimensions                                    24    1
 PW_GRID| the grid is blocked:                                                NO
 PW_GRID| Cutoff [a.u.]                                                     66.7
 PW_GRID| spherical cutoff:                                                   NO
 PW_GRID|   Bounds   1            -60      59                Points:         120
 PW_GRID|   Bounds   2            -60      59                Points:         120
 PW_GRID|   Bounds   3            -60      59                Points:         120
 PW_GRID| Volume element (a.u.^3)  0.1600E-01     Volume (a.u.^3)     27641.1785
 PW_GRID| Grid span                                                    FULLSPACE
 PW_GRID|   Distribution                         Average         Max         Min
 PW_GRID|   G-Vectors                            72000.0       72360       71760
 PW_GRID|   G-Rays                                 600.0         603         598
 PW_GRID|   Real Space Points                    72000.0       72000       72000

 PW_GRID| Information for grid number                                          4
 PW_GRID| Grid distributed over                                    24 processors
 PW_GRID| Real space group dimensions                                    24    1
 PW_GRID| the grid is blocked:                                                NO
 PW_GRID| Cutoff [a.u.]                                                     22.2
 PW_GRID| spherical cutoff:                                                   NO
 PW_GRID|   Bounds   1            -36      35                Points:          72
 PW_GRID|   Bounds   2            -36      35                Points:          72
 PW_GRID|   Bounds   3            -36      35                Points:          72
 PW_GRID| Volume element (a.u.^3)  0.7406E-01     Volume (a.u.^3)     27641.1785
 PW_GRID| Grid span                                                    FULLSPACE
 PW_GRID|   Distribution                         Average         Max         Min
 PW_GRID|   G-Vectors                            15552.0       15768       15408
 PW_GRID|   G-Rays                                 216.0         219         214
 PW_GRID|   Real Space Points                    15552.0       15552       15552

 PW_GRID| Information for grid number                                          5
 PW_GRID| Grid distributed over                                    24 processors
 PW_GRID| Real space group dimensions                                    24    1
 PW_GRID| the grid is blocked:                                                NO
 PW_GRID| Cutoff [a.u.]                                                      7.4
 PW_GRID| spherical cutoff:                                                   NO
 PW_GRID|   Bounds   1            -20      19                Points:          40
 PW_GRID|   Bounds   2            -20      19                Points:          40
 PW_GRID|   Bounds   3            -20      19                Points:          40
 PW_GRID| Volume element (a.u.^3)  0.4319         Volume (a.u.^3)     27641.1785
 PW_GRID| Grid span                                                    FULLSPACE
 PW_GRID|   Distribution                         Average         Max         Min
 PW_GRID|   G-Vectors                             2666.7        2720        2640
 PW_GRID|   G-Rays                                  66.7          68          66
 PW_GRID|   Real Space Points                     2666.7        3200        1600

 POISSON| Solver                                          Martyna-Tuckerman (MT)
 POISSON| MT| Alpha                                                        7.000
 POISSON| MT| Relative cutoff                                                2.0
 POISSON| Periodicity                                                       NONE

 RS_GRID| Information for grid number                                          2
 RS_GRID|   Bounds   1           -100      99                Points:         200
 RS_GRID|   Bounds   2           -100      99                Points:         200
 RS_GRID|   Bounds   3           -100      99                Points:         200
 RS_GRID| Real space distribution over                                  4 groups
 RS_GRID| Real space distribution along direction                              2
 RS_GRID| Border size                                                         24
 RS_GRID| Real space distribution over                                  6 groups
 RS_GRID| Real space distribution along direction                              3
 RS_GRID| Border size                                                         24
 RS_GRID|   Distribution                         Average         Max         Min
 RS_GRID|   Planes                                  98.0          98          98
 RS_GRID|   Distribution                         Average         Max         Min
 RS_GRID|   Planes                                  81.3          82          81

 RS_GRID| Information for grid number                                          3
 RS_GRID|   Bounds   1            -60      59                Points:         120
 RS_GRID|   Bounds   2            -60      59                Points:         120
 RS_GRID|   Bounds   3            -60      59                Points:         120
 RS_GRID| Real space distribution over                                  4 groups
 RS_GRID| Real space distribution along direction                              2
 RS_GRID| Border size                                                         24
 RS_GRID| Real space distribution over                                  6 groups
 RS_GRID| Real space distribution along direction                              3
 RS_GRID| Border size                                                         24
 RS_GRID|   Distribution                         Average         Max         Min
 RS_GRID|   Planes                                  78.0          78          78
 RS_GRID|   Distribution                         Average         Max         Min
 RS_GRID|   Planes                                  68.0          68          68

 RS_GRID| Information for grid number                                          4
 RS_GRID|   Bounds   1            -36      35                Points:          72
 RS_GRID|   Bounds   2            -36      35                Points:          72
 RS_GRID|   Bounds   3            -36      35                Points:          72
 RS_GRID| Real space fully replicated
 RS_GRID| Group size                                                           1

 RS_GRID| Information for grid number                                          5
 RS_GRID|   Bounds   1            -20      19                Points:          40
 RS_GRID|   Bounds   2            -20      19                Points:          40
 RS_GRID|   Bounds   3            -20      19                Points:          40
 RS_GRID| Real space fully replicated
 RS_GRID| Group size                                                           1
 
 RI-RPA| using GPW style
 

  HFX_INFO| Replica ID:                                                        1
  HFX_INFO| EPS_SCHWARZ:                                                 2.0E-17
  HFX_INFO| EPS_SCHWARZ_FORCES                                           1.0E-06
  HFX_INFO| EPS_STORAGE_SCALING:                                         1.0E+00
  HFX_INFO| NBINS:                                                            64
  HFX_INFO| BLOCK_SIZE:                                                        1
  HFX_INFO| FRACTION:                                               1.0000000000
  HFX_INFO| Interaction Potential:                                       COULOMB
  HFX_INFO| Number of periodic shells considered:                           NONE
  HFX_INFO| Number of periodic cells considered:                            NONE


 Number of electrons:                                                          2
 Number of occupied orbitals:                                                  1
 Number of molecular orbitals:                                                 1

 Number of orbital functions:                                                 60
 Number of independent orbital functions:                                     60

 Extrapolation method: initial_guess


 SCF WAVEFUNCTION OPTIMIZATION

  Step     Update method      Time    Convergence         Total energy    Change
  ------------------------------------------------------------------------------
     1 P_Mix/Diag. 0.40E+00    2.6     4.1551E-12        -1.1666391867 -1.17E+00

  *** SCF run converged in     1 steps ***


  Electronic density on regular grids:         -1.9382199903        0.0617800097
  Core density on regular grids:                2.0000000000       -0.0000000000
  Hard and soft densities (Lebedev):           -5.3235708360       -5.2617869766
  Total Rho_soft + Rho1_hard - Rho1_soft       -2.0000038497
  Total charge density (r-space):              -0.0000038497
  Total Rho_soft + Rho0_soft (g-space):        -0.0000038561

  Overlap energy of the core charge distribution:               0.00000051968942
  Self energy of the core charge distribution:                 -2.82094791773878
  Core Hamiltonian energy:                                      0.98137646140337
  Hartree energy:                                               1.07918617313405
  Exchange-correlation energy:                                 -0.64822396999500

  GAPW| Exc from hard and soft atomic rho1:                    -0.04241293853642
  GAPW| local Eh = 1 center integrals:                          0.28438248538635

  Total energy:                                                -1.16663918665700

 !-----------------------------------------------------------------------------!
                     Mulliken Population Analysis

 #  Atom  Element  Kind  Atomic population                           Net charge
       1     H        1          1.000000                             -0.000000
       2     H        1          1.000000                              0.000000
 # Total charge                              2.000000                 -0.000000

 !-----------------------------------------------------------------------------!

 !-----------------------------------------------------------------------------!
                           Hirshfeld Charges

  #Atom  Element  Kind  Ref Charge     Population                    Net charge
      1       H      1       1.000          0.905                         0.095
      2       H      1       1.000          0.905                         0.095

  Total Charge                                                            0.191
 !-----------------------------------------------------------------------------!


 RI-RPA section
 --------------

  Used number of processes per group:                                          1
  Maximum allowed memory usage per MPI processes:                     200.00 MiB

  HFX_MEM_INFO| Est. max. program size before HFX [MiB]:                     376
  HFX_MEM_INFO| Number of cart. primitive ERI's calculated:             12493488
  HFX_MEM_INFO| Number of sph. ERI's calculated:                         4860000
  HFX_MEM_INFO| Number of sph. ERI's stored in-core:                     4860000
  HFX_MEM_INFO| Number of sph. ERI's stored on disk:                           0
  HFX_MEM_INFO| Number of sph. ERI's calculated on the fly:                    0
  HFX_MEM_INFO| Total memory consumption ERI's RAM [MiB]:                     30
  HFX_MEM_INFO| Whereof max-vals [MiB]:                                        1
  HFX_MEM_INFO| Total compression factor ERI's RAM:                         1.26
  HFX_MEM_INFO| Total memory consumption ERI's disk [MiB]:                     0
  HFX_MEM_INFO| Total compression factor ERI's disk:                        0.00
  HFX_MEM_INFO| Size of density/Fock matrix [MiB]:                             0
  HFX_MEM_INFO| Size of buffers [MiB]:                                         0
  HFX_MEM_INFO| Est. max. program size after HFX  [MiB]:                     378

  GPW_INFO| Density cutoff [a.u.]:                                         150.0
  GPW_INFO| Relative density cutoff [a.u.]:                                 25.0
  RI_INFO| Cholesky decomposition group size:                                 24
  RI_INFO| Number of groups for auxiliary basis functions                     24
  RI_INFO| Occupied  basis set size:                                           1
  RI_INFO| Virtual   basis set size:                                          59
  RI_INFO| Auxiliary basis set size:                                         182
  RI_INFO| Total memory for (ia|K) integrals:                           0.08 MiB
  RI_INFO| Group size for frequency integration:                              24
  INTEG_INFO| MINIMAX quadrature
  INTEG_INFO| Number of integration points:                                   14
  INTEG_INFO| Number of integration points per RPA group:                     14
  MATRIX_INFO| Number row processes:                                           4
  MATRIX_INFO| Number column processes:                                        6
  MATRIX_INFO| Row block size:                                                 7
  MATRIX_INFO| Column block size:                                             15
 SIZE(fm_matrix_L_RI_metric, 1) =           1
 SIZE(fm_matrix_L_RI_metric, 2) =           1
 SIZE(fm_matrix_L_RI_metric, 1) =           1
 SIZE(fm_matrix_L_RI_metric, 2) =           1
 SIZE(fm_matrix_L_RI_metric, 1) =           1
 SIZE(fm_matrix_L_RI_metric, 2) =           1
 SIZE(fm_matrix_L_RI_metric, 1) =           1
 SIZE(fm_matrix_L_RI_metric, 2) =           1
 SIZE(fm_matrix_L_RI_metric, 1) =           1
 SIZE(fm_matrix_L_RI_metric, 2) =           1
 SIZE(fm_matrix_L_RI_metric, 1) =           1
 SIZE(fm_matrix_L_RI_metric, 2) =           1
 SIZE(fm_matrix_L_RI_metric, 1) =           1
 SIZE(fm_matrix_L_RI_metric, 2) =           1
 SIZE(fm_matrix_L_RI_metric, 1) =           1
 SIZE(fm_matrix_L_RI_metric, 2) =           1
 SIZE(fm_matrix_L_RI_metric, 1) =           1
 SIZE(fm_matrix_L_RI_metric, 2) =           1
 SIZE(fm_matrix_L_RI_metric, 1) =           1
 SIZE(fm_matrix_L_RI_metric, 2) =           1
 SIZE(fm_matrix_L_RI_metric, 1) =           1
 SIZE(fm_matrix_L_RI_metric, 2) =           1
 SIZE(fm_matrix_L_RI_metric, 1) =           1
 SIZE(fm_matrix_L_RI_metric, 2) =           1
 SIZE(fm_matrix_L_RI_metric, 1) =           1
 SIZE(fm_matrix_L_RI_metric, 2) =           1
 SIZE(fm_matrix_L_RI_metric, 1) =           1
 SIZE(fm_matrix_L_RI_metric, 2) =           1
 SIZE(fm_matrix_L_RI_metric, 1) =           1
 SIZE(fm_matrix_L_RI_metric, 2) =           1
 SIZE(fm_matrix_L_RI_metric, 1) =           1
 SIZE(fm_matrix_L_RI_metric, 2) =           1
 SIZE(fm_matrix_L_RI_metric, 1) =           1
 SIZE(fm_matrix_L_RI_metric, 2) =           1
 SIZE(fm_matrix_L_RI_metric, 1) =           1
 SIZE(fm_matrix_L_RI_metric, 2) =           1
 SIZE(fm_matrix_L_RI_metric, 1) =           1
 SIZE(fm_matrix_L_RI_metric, 2) =           1
 SIZE(fm_matrix_L_RI_metric, 1) =           1
 SIZE(fm_matrix_L_RI_metric, 2) =           1
 SIZE(fm_matrix_L_RI_metric, 1) =           1
 SIZE(fm_matrix_L_RI_metric, 2) =           1
 SIZE(fm_matrix_L_RI_metric, 1) =           1
 SIZE(fm_matrix_L_RI_metric, 2) =           1
 SIZE(fm_matrix_L_RI_metric, 1) =           1
 SIZE(fm_matrix_L_RI_metric, 2) =           1
 SIZE(fm_matrix_L_RI_metric, 1) =           1
 SIZE(fm_matrix_L_RI_metric, 2) =           1
  INTEG_INFO| Range for the minimax approximation:                       31.0189
  INTEG_INFO| Minimax parameters:                    Weights           Abscissas
                                                1.2620734719        0.1564079380
                                                1.3949384553        0.4856528110
                                                1.6782008233        0.8663567811
                                                2.1490207367        1.3403154621
                                                2.8694610551        1.9615735156
                                                3.9368885868        2.8038150829
                                                5.5034078832        3.9713632712
                                                7.8143213587        5.6170910723
                                               11.2941839691        7.9749345994
                                               16.7705895470       11.4279740953
                                               26.1606993438       16.6782320458
                                               45.0642069073       25.2678934333
                                               96.4633872298       41.7093371720
                                              368.2983383639       88.5237334976
  INTEG_INFO| Range for the minimax approximation:                       31.0189
  INTEG_INFO| Gap:                                                        0.4112
  INTEG_INFO| Minimax parameters of the time grid:   Weights           Abscissas
                                                0.0131323920        0.0051015368
                                                0.0313922801        0.0272380174
                                                0.0518183151        0.0686012633
                                                0.0761216071        0.1321585689
                                                0.1067968669        0.2229559927
                                                0.1474571580        0.3490645453
                                                0.2031635114        0.5228659103
                                                0.2807930907        0.7626722410
                                                0.3897653414        1.0948552209
                                                0.5437315972        1.5571166042
                                                0.7645702609        2.2044223576
                                                1.0932327246        3.1216824198
                                                1.6282370073        4.4576502416
                                                2.7545995880        6.5591921732
  INTEG_INFO| Maximum deviation of the imag. time fit:                  2.01E-06
 e_fermi = (a.u. / eV) -0.17586518300326356       -4.7854674947018045     
  MEMORY_INFO| Memory cut:                                                     1
  MEMORY_INFO| Im. time group size for RI functions:                           1
  MEMORY_INFO| Im. time group size for local P matrix:                         1
  SPARSITY_INFO| Eps pgf orb for imaginary time:                        1.00E-30
  SPARSITY_INFO| Eps filter for imaginary time:                         1.00E-30
  SPARSITY_INFO| Second eps filter for imaginary time:                  1.00E-30
  RPA_IM_TIME_INFO| Number of periodic images T for Chi_PQ^T(it):              1
  RPA_IM_TIME_INFO| Number of periodic images T for Chi_PQ^T(it):              1
  RPA_IM_TIME_INFO| Number of periodic images T for Chi_PQ^T(it):              1
  RPA_IM_TIME_INFO| Number of periodic images T for Chi_PQ^T(it):              1
  RPA_IM_TIME_INFO| Number of periodic images T for Chi_PQ^T(it):              1
  RPA_IM_TIME_INFO| Number of periodic images T for Chi_PQ^T(it):              1
  RPA_IM_TIME_INFO| Number of periodic images T for Chi_PQ^T(it):              1
  RPA_IM_TIME_INFO| Number of periodic images T for Chi_PQ^T(it):              1
  RPA_IM_TIME_INFO| Number of periodic images T for Chi_PQ^T(it):              1
  RPA_IM_TIME_INFO| Number of periodic images T for Chi_PQ^T(it):              1
  RPA_IM_TIME_INFO| Number of periodic images T for Chi_PQ^T(it):              1
  RPA_IM_TIME_INFO| Number of periodic images T for Chi_PQ^T(it):              1
  RPA_IM_TIME_INFO| Number of periodic images T for Chi_PQ^T(it):              1
  RPA_IM_TIME_INFO| Number of periodic images T for Chi_PQ^T(it):              1
 after Cholesky dec. mat Q_11           1   6.4307692278361722E-002   1.1588350110734440     
 after Cholesky dec. mat Q_11           2  0.19967791859675066        1.1469123731154596     
 after Cholesky dec. mat Q_11           3  0.35620573978375619        1.1269093642919215     
 after Cholesky dec. mat Q_11           4  0.55107557434092602        1.1038431227044512     
 after Cholesky dec. mat Q_11           5  0.80650808131886587        1.0813939495478109     
 after Cholesky dec. mat Q_11           6   1.1527987633004781        1.0613787534202561     
 after Cholesky dec. mat Q_11           7   1.6328404450270477        1.0445642523562273     
 after Cholesky dec. mat Q_11           8   2.3094874127462641        1.0312341062119801     
 after Cholesky dec. mat Q_11           9   3.2789233497609667        1.0211558208670781     
 after Cholesky dec. mat Q_11          10   4.6986530904366068        1.0137117360578531     
 after Cholesky dec. mat Q_11          11   6.8573157316862066        1.0082949046106828     
 after Cholesky dec. mat Q_11          12   10.388986234932901        1.0044814240175384     
 after Cholesky dec. mat Q_11          13   17.148945593414741        1.0019545000367620     
 after Cholesky dec. mat Q_11          14   36.396854814914754        1.0004882925633980     
 iquad            tau               W_11
           1   1.2407860221706566E-002  -2.0036890228989296E-003
           2   6.6247784504747442E-002  -1.8630267177398578E-003
           3  0.16685067920327290       -1.6787332383231429E-003
           4  0.32143354117818340       -1.4821717746003511E-003
           5  0.54226929704257665       -1.2716602060313833E-003
           6  0.84898810451483142       -1.0444546865706168E-003
           7   1.2717044573445475       -8.0706817574980694E-004
           8   1.8549568238351537       -5.7375077882152305E-004
           9   2.6628859082661127       -3.6428665624295349E-004
          10   3.7871891951194532       -1.9865157881931094E-004
          11   5.3615538564990430       -8.8120992880260081E-005
          12   7.5924962197990391       -2.9192107594260877E-005
          13   10.841811580035001       -6.1535866779877824E-006
          14   15.953141634085664       -5.5752417010835623E-007
 iquad            tau               vec_Sigma_c_gw_cos_omega              vec_Sigma_c_gw_sin_omega
           1   1.2407860221706566E-002  -2.0867107747919313E-002  -3.1777791126770365E-002
           2   6.6247784504747442E-002  -1.5117593110964106E-002  -2.5222390497130771E-002
           3  0.16685067920327290       -9.4285711604258533E-003  -1.8230010090603637E-002
           4  0.32143354117818340       -5.4013227195397872E-003  -1.2592909386846750E-002
           5  0.54226929704257665       -2.8114861526531325E-003  -8.2838837987226459E-003
           6  0.84898810451483142       -1.2688505902418640E-003  -5.0946753467181194E-003
           7   1.2717044573445475       -4.5096665103954987E-004  -2.8581892273675689E-003
           8   1.8549568238351537       -9.0915513455720439E-005  -1.4155670460510603E-003
           9   2.6628859082661127        1.7172790139374208E-005  -5.9554487037201658E-004
          10   3.7871891951194532        2.2221398368531823E-005  -2.0304918215618395E-004
          11   5.3615538564990430        8.7325691018291966E-006  -5.2182223323645332E-005
          12   7.5924962197990391        1.9411656867863849E-006  -8.9067723341219658E-006
          13   10.841811580035001        2.4164668698071411E-007  -7.9918396152542794E-007
          14   15.953141634085664        9.8178873604449968E-009  -2.1412143985820480E-008
 REORDERED LEVEL =           3
 jquad         omega                  Sigma 
 REORDERED LEVEL =           1
 jquad         omega                  Sigma 
 REORDERED LEVEL =           7
 jquad         omega                  Sigma 
 REORDERED LEVEL =           5
 jquad         omega                  Sigma 
 REORDERED LEVEL =           9
 jquad         omega                  Sigma 
 REORDERED LEVEL =           2
 jquad         omega                  Sigma 
 REORDERED LEVEL =          11
 jquad         omega                  Sigma 
 REORDERED LEVEL =           6
 jquad         omega                  Sigma 
 REORDERED LEVEL =          10
 jquad         omega                  Sigma 
 REORDERED LEVEL =           4
 jquad         omega                  Sigma 
           1   9.9999999999999998E-013 ( -1.6682209294934146E-002, -1.5499835998008478E-014)
           2   3.1415952374491045E-004 ( -1.6682208943752330E-002, -4.8694207968902807E-006)
 REORDERED LEVEL =           8
 jquad         omega                  Sigma 
           1   9.9999999999999998E-013 ( -7.2088349027500690E-003, -1.1654090413311321E-014)
           2   3.1415952374491045E-004 ( -7.2088350018388149E-003, -3.6612431902540298E-006)
           3   6.2832059781124877E-004 ( -7.2088352991052998E-003, -7.3225026260425403E-006)
           4   9.4248477255115862E-004 ( -7.2088357945502670E-003, -1.0983794553154497E-005)
           5   1.2566535983779773E-003 ( -7.2088364881770402E-003, -1.4645135217886277E-005)
           6   1.5708286257967215E-003 ( -7.2088373799877271E-003, -1.8306540867292096E-005)
           7   1.8850114054349632E-003 ( -7.2088384699870740E-003, -2.1968027749442752E-005)
           1  -9.9999999999999998E-013 ( -3.4018302903946869E-002,  8.7894669225598079E-014)
           2  -3.1415952374491045E-004 ( -3.4018305271288622E-002,  2.7612944759801674E-005)
           3  -6.2832059781124877E-004 ( -3.4018312373346168E-002,  5.5226009801456301E-005)
           4  -9.4248477255115862E-004 ( -3.4018324210216465E-002,  8.2839315408667050E-005)
           5  -1.2566535983779773E-003 ( -3.4018340782073109E-002,  1.1045298186882335E-004)
           1   9.9999999999999998E-013 ( -2.5162745878117818E-002, -2.1921372702917168E-014)
           2   3.1415952374491045E-004 ( -2.5162745602486276E-002, -6.8868076845190247E-006)
           3   6.2832059781124877E-004 ( -2.5162744775582717E-002, -1.3773647412201731E-005)
           4   9.4248477255115862E-004 ( -2.5162743397379807E-002, -2.0660551226746816E-005)
           5   1.2566535983779773E-003 ( -2.5162741467837296E-002, -2.7547551172920732E-005)
           6   1.5708286257967215E-003 ( -2.5162738986892686E-002, -3.4434679297084135E-005)
           7   1.8850114054349632E-003 ( -2.5162735954470487E-002, -4.1321967647736440E-005)
           1   9.9999999999999998E-013 ( -2.1406060732401803E-002, -1.7114673349118948E-014)
           2   3.1415952374491045E-004 ( -2.1406059677154542E-002, -5.3767371573310803E-006)
           3   6.2832059781124877E-004 ( -2.1406056511393112E-002, -1.0753498021412279E-005)
           4   9.4248477255115862E-004 ( -2.1406051235057875E-002, -1.6130306299379350E-005)
           5   1.2566535983779773E-003 ( -2.1406043848050844E-002, -2.1507185699136707E-005)
           1   9.9999999999999998E-013 ( -2.0203937246707812E-002, -2.1397178836992662E-014)
           2   3.1415952374491045E-004 ( -2.0203937010374290E-002, -6.7221271310643159E-006)
           3   6.2832059781124877E-004 ( -2.0203936301368880E-002, -1.3444285143510685E-005)
           4   9.4248477255115862E-004 ( -2.0203935119676015E-002, -2.0166504919263856E-005)
           5   1.2566535983779773E-003 ( -2.0203933465270926E-002, -2.6888817341330472E-005)
           1   9.9999999999999998E-013 ( -1.8922512971928464E-002, -1.2148918690086961E-014)
           2   3.1415952374491045E-004 ( -1.8922512165760130E-002, -3.8166982872478584E-006)
           3   6.2832059781124877E-004 ( -1.8922509747240003E-002, -7.6334140745385339E-006)
           4   9.4248477255115862E-004 ( -1.8922505716321904E-002, -1.1450164862222636E-005)
           5   1.2566535983779773E-003 ( -1.8922500072929404E-002, -1.5266968151264327E-005)
           6   1.5708286257967215E-003 ( -1.8922492816955305E-002, -1.9083841443544714E-005)
           1   9.9999999999999998E-013 ( -1.0822149797689475E-002, -2.1666380837300722E-014)
           2   3.1415952374491045E-004 ( -1.0822149825061843E-002, -6.8066992316649385E-006)
           3   6.2832059781124877E-004 ( -1.0822149907178223E-002, -1.3613428132402487E-005)
           4   9.4248477255115862E-004 ( -1.0822150044036234E-002, -2.0420216371758300E-005)
           5   1.2566535983779773E-003 ( -1.0822150235633387E-002, -2.7227093620220034E-005)
           6   1.5708286257967215E-003 ( -1.0822150481964622E-002, -3.4034089549683762E-005)
           7   1.8850114054349632E-003 ( -1.0822150783024559E-002, -4.0841233833932859E-005)
           1   9.9999999999999998E-013 ( -1.5320459259761336E-002, -2.7739178484901130E-014)
           2   3.1415952374491045E-004 ( -1.5320459409155052E-002, -8.7145263637140388E-006)
           3   6.2832059781124877E-004 ( -1.5320459857336681E-002, -1.7429091302960586E-005)
           4   9.4248477255115862E-004 ( -1.5320460604307506E-002, -2.6143733393893372E-005)
           5   1.2566535983779773E-003 ( -1.5320461650072921E-002, -3.4858491213904273E-005)
           3   6.2832059781124877E-004 ( -1.6682207890198749E-002, -9.7388638332787836E-006)
           4   9.4248477255115862E-004 ( -1.6682206134248780E-002, -1.4608351349034676E-005)
           5   1.2566535983779773E-003 ( -1.6682203675864139E-002, -1.9477905584767175E-005)
           6   1.5708286257967215E-003 ( -1.6682200514988144E-002, -2.4347548782190730E-005)
           7   1.8850114054349632E-003 ( -1.6682196651550209E-002, -2.9217303184502140E-005)
           8   2.1992034880733125E-003 ( -1.6682192085462223E-002, -3.4087191036744780E-005)
           9   2.5134064246759491E-003 ( -1.6682186816621876E-002, -3.8957234586179746E-005)
           1   9.9999999999999998E-013 ( -2.0203937246725825E-002, -2.1397178837011743E-014)
           2   3.1415952374491045E-004 ( -2.0203937010392300E-002, -6.7221271310703061E-006)
           3   6.2832059781124877E-004 ( -2.0203936301386897E-002, -1.3444285143522665E-005)
           4   9.4248477255115862E-004 ( -2.0203935119694025E-002, -2.0166504919281834E-005)
           5   1.2566535983779773E-003 ( -2.0203933465288933E-002, -2.6888817341354439E-005)
           6   1.5708286257967215E-003 ( -2.0203931338136184E-002, -3.3611253294363789E-005)
           7   1.8850114054349632E-003 ( -2.0203928738190609E-002, -4.0333843665099609E-005)
           1   9.9999999999999998E-013 ( -1.8922512971931253E-002, -1.2148918690091519E-014)
           2   3.1415952374491045E-004 ( -1.8922512165762916E-002, -3.8166982872492899E-006)
           3   6.2832059781124877E-004 ( -1.8922509747242792E-002, -7.6334140745413985E-006)
           4   9.4248477255115862E-004 ( -1.8922505716324693E-002, -1.1450164862226932E-005)
           5   1.2566535983779773E-003 ( -1.8922500072932179E-002, -1.5266968151270053E-005)
           6   1.5708286257967215E-003 ( -1.8922492816958091E-002, -1.9083841443551870E-005)
           7   1.8850114054349632E-003 ( -1.8922483948264623E-002, -2.2900802242182059E-005)
           8   2.1992034880733125E-003 ( -1.8922473466683354E-002, -2.6717868051802820E-005)
           9   2.5134064246759491E-003 ( -1.8922461372015302E-002, -3.0535056378895535E-005)
          10   2.8276217664213428E-003 ( -1.8922447664030360E-002, -3.4352384732086954E-005)
          11   3.1418510647329779E-003 ( -1.8922432342468484E-002, -3.8169870622458106E-005)
           8   2.1992034880733125E-003 ( -7.2088397581791860E-003, -2.5629612113675171E-005)
           9   2.5134064246759491E-003 ( -7.2088412445704764E-003, -2.9291310210847025E-005)
          10   2.8276217664213428E-003 ( -7.2088429291673030E-003, -3.2953138293592846E-005)
          11   3.1418510647329779E-003 ( -7.2088448119769959E-003, -3.6615112616572278E-005)
           6  -1.5708286257967215E-003 ( -3.4018362089144362E-002,  1.3806712947482322E-004)
           7  -1.8850114054349632E-003 ( -3.4018388131735577E-002,  1.6568187852695077E-004)
           8  -2.1992034880733125E-003 ( -3.4018418910210103E-002,  1.9329734933469308E-004)
           9  -2.5134064246759491E-003 ( -3.4018454425006527E-002,  2.2091366221858709E-004)
           8   2.1992034880733125E-003 ( -2.5162732370474287E-002, -4.8209448276040405E-005)
           9   2.5134064246759491E-003 ( -2.5162728234793982E-002, -5.5097153236358543E-005)
          10   2.8276217664213428E-003 ( -2.5162723547299863E-002, -6.1985114586792187E-005)
          11   3.1418510647329779E-003 ( -2.5162718307845399E-002, -6.8873364389701860E-005)
          12   3.4560958713099150E-003 ( -2.5162712516268247E-002, -7.5761934712258489E-005)
           6   1.5708286257967215E-003 ( -2.1406034350233576E-002, -2.6884159929736869E-005)
           7   1.8850114054349632E-003 ( -2.1406022741428943E-002, -3.2261252701771870E-005)
           8   2.1992034880733125E-003 ( -2.1406009021419717E-002, -3.7638487727752832E-005)
           6   1.5708286257967215E-003 ( -2.0203931338118170E-002, -3.3611253294333811E-005)
           7   1.8850114054349632E-003 ( -2.0203928738172599E-002, -4.0333843665063661E-005)
           8   2.1992034880733125E-003 ( -2.0203925665378712E-002, -4.7056619343011763E-005)
           9   2.5134064246759491E-003 ( -2.0203922119671369E-002, -5.3779611220912799E-005)
          10   2.8276217664213428E-003 ( -2.0203918100974376E-002, -6.0502850195284662E-005)
           7   1.8850114054349632E-003 ( -1.8922483948261837E-002, -2.2900802242173467E-005)
           8   2.1992034880733125E-003 ( -1.8922473466680571E-002, -2.6717868051792802E-005)
           9   2.5134064246759491E-003 ( -1.8922461372012516E-002, -3.0535056378884083E-005)
          10   2.8276217664213428E-003 ( -1.8922447664027581E-002, -3.4352384732074059E-005)
           8   2.1992034880733125E-003 ( -1.0822151138805735E-002, -4.7648556149103856E-005)
           9   2.5134064246759491E-003 ( -1.0822151549300250E-002, -5.4456086174157608E-005)
          10   2.8276217664213428E-003 ( -1.0822152014498073E-002, -6.1263853591352087E-005)
          11   3.1418510647329779E-003 ( -1.0822152534388375E-002, -6.8071888086712235E-005)
          12   3.4560958713099150E-003 ( -1.0822153108959136E-002, -7.4880219350505060E-005)
          13   3.7703577381573172E-003 ( -1.0822153738196496E-002, -8.1688877077700582E-005)
          14   4.0846382176174343E-003 ( -1.0822154422086236E-002, -8.8497890968458980E-005)
           6   1.5708286257967215E-003 ( -1.5320462994636784E-002, -4.3573403342235294E-005)
           7   1.8850114054349632E-003 ( -1.5320464638006806E-002, -5.2288508360608971E-005)
           8   2.1992034880733125E-003 ( -1.5320466580190222E-002, -6.1003844853838763E-005)
           9   2.5134064246759491E-003 ( -1.5320468821197789E-002, -6.9719451410449657E-005)
          10   2.8276217664213428E-003 ( -1.5320471361039959E-002, -7.8435366623300651E-005)
          11   3.1418510647329779E-003 ( -1.5320474199729489E-002, -8.7151629090197720E-005)
          10   2.8276217664213428E-003 ( -1.6682180844909491E-002, -4.3827456082658835E-005)
          11   3.1418510647329779E-003 ( -1.6682174170190175E-002, -4.8697877778988192E-005)
          12   3.4560958713099150E-003 ( -1.6682166792313505E-002, -5.3568521931306469E-005)
          13   3.7703577381573172E-003 ( -1.6682158711112133E-002, -5.8439410799443196E-005)
          14   4.0846382176174343E-003 ( -1.6682149926404419E-002, -6.3310566647304479E-005)
          15   4.3989388623999334E-003 ( -1.6682140437990569E-002, -6.8182011743227205E-005)
          16   4.7132612256129613E-003 ( -1.6682130245656717E-002, -7.3053768360369396E-005)
          12   3.4560958713099150E-003 ( -1.8922415407038644E-002, -4.1987531563851966E-005)
          13   3.7703577381573172E-003 ( -1.8922396857418779E-002, -4.5805385073172790E-005)
          14   4.0846382176174343E-003 ( -1.8922376693256793E-002, -4.9623448670706046E-005)
          15   4.3989388623999334E-003 ( -1.8922354914169482E-002, -5.3441739880411982E-005)
          16   4.7132612256129613E-003 ( -1.8922331519742763E-002, -5.7260276230245963E-005)
          17   5.0276068607934994E-003 ( -1.8922306509532246E-002, -6.1079075252454851E-005)
          18   5.3419773219384233E-003 ( -1.8922279883062495E-002, -6.4898154483891406E-005)
          19   5.6563741635350740E-003 ( -1.8922251639827459E-002, -6.8717531466321079E-005)
          20   5.9707989405921695E-003 ( -1.8922221779290042E-002, -7.2537223746728407E-005)
          21   6.2852532086702505E-003 ( -1.8922190300882675E-002, -7.6357248877624185E-005)
          22   6.5997385239130379E-003 ( -1.8922157204006789E-002, -8.0177624417357028E-005)
          23   6.9142564430779594E-003 ( -1.8922122488033006E-002, -8.3998367930419738E-005)
          24   7.2288085235669474E-003 ( -1.8922086152300815E-002, -8.7819496987761580E-005)
          25   7.5433963234575897E-003 ( -1.8922048196119132E-002, -9.1641029167090739E-005)
          26   7.8580214015339413E-003 ( -1.8922008618765539E-002, -9.5462982053191699E-005)
          27   8.1726853173173745E-003 ( -1.8921967419487155E-002, -9.9285373238225695E-005)
          28   8.4873896310976738E-003 ( -1.8921924597499879E-002, -1.0310822032204901E-004)
          29   8.8021359039641353E-003 ( -1.8921880151988216E-002, -1.0693154091251700E-004)
          30   9.1169256978364949E-003 ( -1.8921834082106147E-002, -1.1075535262579863E-004)
          31   9.4317605754960978E-003 ( -1.8921786386976412E-002, -1.1457967308668300E-004)
          32   9.7466421006169035E-003 ( -1.8921737065690416E-002, -1.1840451992889536E-004)
          33   1.0061571837796730E-002 ( -1.8921686117308552E-002, -1.2222991079540390E-004)
          34   1.0376551352588590E-002 ( -1.8921633540860142E-002, -1.2605586333873031E-004)
          35   1.0691582211531624E-002 ( -1.8921579335343035E-002, -1.2988239522127045E-004)
           8   2.1992034880733125E-003 ( -2.0203925665396725E-002, -4.7056619343053729E-005)
           9   2.5134064246759491E-003 ( -2.0203922119689383E-002, -5.3779611220960768E-005)
          10   2.8276217664213428E-003 ( -2.0203918100992382E-002, -6.0502850195338635E-005)
          11   3.1418510647329779E-003 ( -2.0203913609220619E-002, -6.7226367167032153E-005)
          12   3.4560958713099150E-003 ( -2.0203908644278498E-002, -7.3950193041756539E-005)
          13   3.7703577381573172E-003 ( -2.0203903206059689E-002, -8.0674358730624369E-005)
          14   4.0846382176174343E-003 ( -2.0203897294448919E-002, -8.7398895150710222E-005)
          15   4.3989388623999334E-003 ( -2.0203890909319937E-002, -9.4123833225568274E-005)
          16   4.7132612256129613E-003 ( -2.0203884050536445E-002, -1.0084920388579744E-004)
          17   5.0276068607934994E-003 ( -2.0203876717952509E-002, -1.0757503806956276E-004)
          18   5.3419773219384233E-003 ( -2.0203868911411810E-002, -1.1430136672315089E-004)
          19   5.6563741635350740E-003 ( -2.0203860630747920E-002, -1.2102822080151124E-004)
          20   5.9707989405921695E-003 ( -2.0203851875784034E-002, -1.2775563126879482E-004)
          17   5.0276068607934994E-003 ( -1.6682119349172291E-002, -7.7925858777054741E-005)
          18   5.3419773219384233E-003 ( -1.6682107748291587E-002, -8.2798305277167683E-005)
          19   5.6563741635350740E-003 ( -1.6682095442751507E-002, -8.7671130150515102E-005)
          20   5.9707989405921695E-003 ( -1.6682082432273856E-002, -9.2544355693192091E-005)
          21   6.2852532086702505E-003 ( -1.6682068716565041E-002, -9.7418004207963413E-005)
          22   6.5997385239130379E-003 ( -1.6682054295314479E-002, -1.0229209800462399E-004)
          23   6.9142564430779594E-003 ( -1.6682039168196394E-002, -1.0716665940037607E-004)
          24   7.2288085235669474E-003 ( -1.6682023334868193E-002, -1.1204171072022019E-004)
          25   7.5433963234575897E-003 ( -1.6682006794971733E-002, -1.1691727429728659E-004)
          26   7.8580214015339413E-003 ( -1.6681989548132721E-002, -1.2179337247324748E-004)
          27   8.1726853173173745E-003 ( -1.6681971593961346E-002, -1.2667002759865809E-004)
          12   3.4560958713099150E-003 ( -7.2088468930083752E-003, -4.0277249436730799E-005)
          13   3.7703577381573172E-003 ( -7.2088491722703246E-003, -4.3939565013544341E-005)
          14   4.0846382176174343E-003 ( -7.2088516497736989E-003, -4.7602075609283539E-005)
          15   4.3989388623999334E-003 ( -7.2088543255285509E-003, -5.1264797489258451E-005)
          16   4.7132612256129613E-003 ( -7.2088571995474445E-003, -5.4927746922083893E-005)
          17   5.0276068607934994E-003 ( -7.2088602718430135E-003, -5.8590940179915996E-005)
          18   5.3419773219384233E-003 ( -7.2088635424295494E-003, -6.2254393538724941E-005)
          19   5.6563741635350740E-003 ( -7.2088670113208816E-003, -6.5918123278540860E-005)
          20   5.9707989405921695E-003 ( -7.2088706785326945E-003, -6.9582145683704560E-005)
          21   6.2852532086702505E-003 ( -7.2088745440818244E-003, -7.3246477043130539E-005)
          22   6.5997385239130379E-003 ( -7.2088786079851884E-003, -7.6911133650553321E-005)
          23   6.9142564430779594E-003 ( -7.2088828702612665E-003, -8.0576131804783310E-005)
          24   7.2288085235669474E-003 ( -7.2088873309288787E-003, -8.4241487809981138E-005)
          25   7.5433963234575897E-003 ( -7.2088919900079092E-003, -8.7907217975876807E-005)
          26   7.8580214015339413E-003 ( -7.2088968475193292E-003, -9.1573338618058071E-005)
          27   8.1726853173173745E-003 ( -7.2089019034850006E-003, -9.5239866058199928E-005)
          10  -2.8276217664213428E-003 ( -3.4018494676624877E-002,  2.4853093751207921E-004)
          11  -3.1418510647329779E-003 ( -3.4018539665632536E-002,  2.7614929556333802E-004)
          12  -3.4560958713099150E-003 ( -3.4018589392667345E-002,  3.0376885673713810E-004)
          13  -3.7703577381573172E-003 ( -3.4018643858429530E-002,  3.3138974141664772E-004)
          14  -4.0846382176174343E-003 ( -3.4018703063692354E-002,  3.5901207000534036E-004)
          15  -4.3989388623999334E-003 ( -3.4018767009286466E-002,  3.8663596292877819E-004)
[...]
 omega_points_pade = (  0.0000000000000000     ,  9.9999999999999998E-013) (  0.0000000000000000     ,  3.9782473475931619E-002) (  0.0000000000000000     ,  8.2842712474619024E-002) (  0.0000000000000000     , 0.13363572758385980     ) (  0.0000000000000000     , 0.20000000000000004     ) (  0.0000000000000000     , 0.29932115253309782     ) (  0.0000000000000000     , 0.48284271247461907     ) (  0.0000000000000000     , 0.99727829908815668     )
         872 -0.97346142716965245      ( -3.8337508008522196E-002,  4.7751591501530431E-002)
         873 -0.98127800108974561      ( -3.8318521863934252E-002,  4.7848639791591561E-002)
         874 -0.98921599460618381      ( -3.8298366327876532E-002,  4.7944733404275137E-002)
 coeff_pade = ( -2.0203937246707812E-002, -2.1397178836992662E-014) ( -1.0566197368820236     ,  3.9759931591352778E-002) ( 0.93936248252992471     ,-0.10470797272358831     ) ( 0.60962833530173255     ,  4.9055506893857037E-003) (-0.43521105517954534     ,  5.5095306874805789E-003) ( -1.6894088964200733     ,  1.8847081040030911E-002) (-0.56724392381348865     , -1.5176208085754481     ) (-0.74872629553638081     ,-0.21985882742423896     )
 sigma_c_pade = (-0.91018058076234531     , -2.2047680132298020E-003)
 coeff_pade = ( -1.8922512971928464E-002, -1.2148918690086961E-014) (-0.64189324970852135     , -7.7621694600402222E-004) ( -3.0956893208426418E-002, -1.7180331729864849E-002) ( -2.6757676262869028     ,  2.4204873663267161     ) (  2.6525634848571884     , -2.4149432985250132     ) ( 0.26250060828658101     , 0.16780649043600315     ) ( -1.5396016404010699     , -1.8410991969905894     ) (-0.50852909138566293     ,-0.53416848861792665     )
 sigma_c_pade = ( -1.3075403879073642     , -2.1449661150162065E-002)
 z_value(n_level_gw) =  0.89616046823428619     
 m_value(n_level_gw) = -0.11587158265339446     
         875 -0.99727829908815668      ( -3.8277010006027797E-002,  4.8039835645400340E-002)
 level_energ_GW =  0.75548731672886493     
 
 
 
 n_level_gw =           6
 AFTER evaluate_pade_function/get_z_and_m_value_pade
 energy_val =  0.50661572923341058     
 nparam_pade =           8
 z_value(n_level_gw) =  0.96553847854775865     
 m_value(n_level_gw) =  -3.5691505018084761E-002
 level_energ_GW =  0.47244637521400695     
 
 
 n_level_gw =           1
 AFTER evaluate_pade_function/get_z_and_m_value_pade
 energy_val = -0.20557681752047216     
 nparam_pade =           8
 
 n_level_gw =           5
 AFTER get_sigma_c_newton_pade
 vec_gw_energ(n_level_gw) =  -1.0682602386071303     
 n_level_gw =           9
 AFTER get_sigma_c_newton_pade
 vec_gw_energ(n_level_gw) =  -1.7720602724204446     
 Eigenval_scf(n_level_gw_ref) =   17.644744473470222     
 nparam_pade =           8
 omega_points_pade = ( -0.0000000000000000     , -9.9999999999999998E-013) ( -0.0000000000000000     , -3.9782473475931619E-002) ( -0.0000000000000000     , -8.2842712474619024E-002) ( -0.0000000000000000     ,-0.13363572758385980     ) ( -0.0000000000000000     ,-0.20000000000000004     ) ( -0.0000000000000000     ,-0.29932115253309782     ) ( -0.0000000000000000     ,-0.48284271247461907     ) ( -0.0000000000000000     ,-0.99727829908815668     )
 Eigenval_scf(n_level_gw_ref) =   9.0000531134610018     
 nparam_pade =           8
 level_energ_GW =  0.47244637521400695     
 
 omega_points_pade = (  0.0000000000000000     ,  9.9999999999999998E-013) (  0.0000000000000000     ,  3.9782473475931619E-002) (  0.0000000000000000     ,  8.2842712474619024E-002) (  0.0000000000000000     , 0.13363572758385980     ) (  0.0000000000000000     , 0.20000000000000004     ) (  0.0000000000000000     , 0.29932115253309782     ) (  0.0000000000000000     , 0.48284271247461907     ) (  0.0000000000000000     , 0.99727829908815668     )
 coeff_pade = ( -2.0203937246725825E-002, -2.1397178837011743E-014) ( -1.0566197368820718     ,  3.9759931591581692E-002) ( 0.93936248253345911     ,-0.10470797272011353     ) ( 0.60962833530509963     ,  4.9055506520523191E-003) (-0.43521105541673577     ,  5.5095309340416629E-003) ( -1.6894088984241828     ,  1.8847080545920974E-002) (-0.56724392344085206     , -1.5176208088301053     ) (-0.74872629516154399     ,-0.21985882667486070     )
 level_energ_GW =  0.75548731672886493     
 
 sigma_c_pade = (-0.91018058075776209     , -2.2047680140731174E-003)
 z_value(n_level_gw) =  0.96553847854912611     
 m_value(n_level_gw) =  -3.5691505016617955E-002
 coeff_pade = ( -3.4018302903946869E-002,  8.7894669225598079E-014) ( -2.5472626635103222     ,-0.28894547333700310     ) (  2.7958392449857645     , 0.43064484442481299     ) ( 0.35215066877633927     ,  1.9202181090162959E-002) (-0.58656676088712190     ,-0.18215426424975087     ) ( -3.5949054084303440     , 0.45919396607853691     ) ( 0.57855431205928110     ,  1.2245098585787513     ) ( -6.3840040620138275E-002,-0.43541421940923869     )
 sigma_c_pade = (-0.38016764957548160     ,  3.7011856241272541E-005)
 z_value(n_level_gw) =  0.89833106540537822     
 m_value(n_level_gw) = -0.11317535206103878     
 level_energ_GW = -0.58570583081033056     
 level_energ_GW =  0.47244637521503680     
 
 
 n_level_gw =           6
 
 
 AFTER get_sigma_c_newton_pade
 vec_gw_energ(n_level_gw) =  -1.0682602385940181     
 Eigenval_scf(n_level_gw_ref) =   9.0000531134685300     
 nparam_pade =           8
 n_level_gw =           1
 AFTER get_sigma_c_newton_pade
 vec_gw_energ(n_level_gw) =  0.42714442797306273     
 Eigenval_scf(n_level_gw_ref) =  -10.379418276251371     
 level_energ_GW =  0.47244637521503680     
 
 nparam_pade =           8
 level_energ_GW = -0.58570583081033056     
 
  
  GW quasiparticle energies
  -------------------------
   
  The GW quasiparticle energies are calculated according to: 
  E_GW = E_SCF + Z * ( Sigc(E_SCF) + Sigx - vxc )
   
  The energy unit of the following table is eV.  Sigc_fit is a very conservative
  estimate of the statistical error of the fitting.
   
            MO      E_SCF       Sigc   Sigc_fit   Sigx-vxc          Z       E_GW
     1 ( occ )    -10.380      0.427      0.000     -5.807      1.000    -15.760
     2 ( vir )      0.808     -0.487      0.000      3.177      1.000      3.498
     3 ( vir )      2.789     -0.316      0.000      2.494      1.000      4.966
     4 ( vir )      7.900     -0.973      0.000      3.955      1.000     10.882
     5 ( vir )      9.000     -1.068      0.000      4.904      1.000     12.835
     6 ( vir )      9.000     -1.068      0.000      4.904      1.000     12.835
     7 ( vir )     17.151     -2.042      0.000      4.657      1.000     19.767
     8 ( vir )     17.645     -1.772      0.000      4.558      1.000     20.431
     9 ( vir )     17.645     -1.772      0.000      4.558      1.000     20.431
    10 ( vir )     22.938     -2.210      0.000      5.392      1.000     26.119
    11 ( vir )     23.237     -2.114      0.000      4.380      1.000     25.502
   
  GW HOMO-LUMO gap (eV)                                                    19.26
  

  Total RI-RPA Time=                                                   74.342792
  RI-RPA energy  =                                             -0.07882413417700

  Total EXX Time=                                                       1.918591
  EXX energy  =                                                -0.65670549919060

 ENERGY| Total FORCE_EVAL ( QS ) energy (a.u.):               -1.211531911475093


 -------------------------------------------------------------------------------
 -                                                                             -
 -                                DBCSR STATISTICS                             -
 -                                                                             -
 -------------------------------------------------------------------------------
 COUNTER                                    TOTAL       BLAS       SMM       ACC
 flops    30 x     1 x    30                 7200     100.0%      0.0%      0.0%
 flops    30 x    30 x    30               216000     100.0%      0.0%      0.0%
 flops    60 x    60 x    30               432000     100.0%      0.0%      0.0%
 flops    91 x    91 x    91            168799904     100.0%      0.0%      0.0%
 flops   182 x    60 x    30            403603200     100.0%      0.0%      0.0%
 flops   182 x    60 x    91            612131520     100.0%      0.0%      0.0%
 flops    30 x   210 x    30            861840000     100.0%      0.0%      0.0%
 flops    30 x   240 x    30           1378944000     100.0%      0.0%      0.0%
 flops    91 x    91 x   150           3338899200     100.0%      0.0%      0.0%
 flops inhomo. stacks                       10800     100.0%      0.0%      0.0%
 flops total                         6.764884E+09     100.0%      0.0%      0.0%
 flops max/rank                      1.422817E+09     100.0%      0.0%      0.0%
 matmuls inhomo. stacks                         6     100.0%      0.0%      0.0%
 matmuls total                               7868     100.0%      0.0%      0.0%
 number of processed stacks                  1992     100.0%      0.0%      0.0%
 average stack size                                     3.9       0.0       0.0
 marketing flops                     6.803697E+09
 -------------------------------------------------------------------------------
 # multiplications                            524
 max memory usage/rank             412.708864E+06
 # max total images/rank                        3
 # max 3D layers                                1
 # MPI messages exchanged                  219336
 MPI messages size (bytes):
  total size                       435.799584E+06
  min size                           0.000000E+00
  max size                         132.496000E+03
  average size                       1.986904E+03
 MPI breakdown and total messages size (bytes):
             size <=      128              211656                        0
       128 < size <=     8192                  28                    52320
      8192 < size <=    32768                1884                 27129600
     32768 < size <=   131072                4004                174894720
    131072 < size <=  4194304                1764                233722944
   4194304 < size <= 16777216                   0                        0
  16777216 < size                               0                        0
 -------------------------------------------------------------------------------

 *** WARNING in dbcsr_mm.F:278 :: Using a non-square number of MPI ranks ***
 *** might lead to poor performance. Used ranks: 24 Suggested: 25 49     ***

 -------------------------------------------------------------------------------
 -                                                                             -
 -                      DBCSR MESSAGE PASSING PERFORMANCE                      -
 -                                                                             -
 -------------------------------------------------------------------------------

 ROUTINE             CALLS      AVE VOLUME [Bytes]
 MP_Group               26
 MP_Bcast               10                     12.
 MP_Allreduce         2949                      8.
 MP_Alltoall          1840                  16898.
 MP_Wait             27968
 MP_ISend            20374                   4853.
 MP_IRecv            20374                     62.
 MP_Memory           37478
 -------------------------------------------------------------------------------


 MEMORY| Estimated peak process memory [MiB]                                 394

 -------------------------------------------------------------------------------
 ----                             MULTIGRID INFO                            ----
 -------------------------------------------------------------------------------
 count for grid        1:          10380          cutoff [a.u.]          200.00
 count for grid        2:           6597          cutoff [a.u.]           66.67
 count for grid        3:           2154          cutoff [a.u.]           22.22
 count for grid        4:            681          cutoff [a.u.]            7.41
 total gridlevel count  :          19812

 -------------------------------------------------------------------------------
 -                                                                             -
 -                         MESSAGE PASSING PERFORMANCE                         -
 -                                                                             -
 -------------------------------------------------------------------------------

 ROUTINE             CALLS      AVE VOLUME [Bytes]
 MP_Group                5
 MP_Bcast              109                2489677.
 MP_Allreduce          341                   8593.
 MP_Sync                72
 MP_Alltoall           123                3770426.
 MP_ISendRecv          276                  53776.
 MP_Wait               940
 MP_comm_split          10
 MP_ISend             3188                  55607.
 MP_IRecv             2546                  96740.
 -------------------------------------------------------------------------------


 -------------------------------------------------------------------------------
 -                                                                             -
 -                           R E F E R E N C E S                               -
 -                                                                             -
 -------------------------------------------------------------------------------
 
 CP2K version 7.0 (Development Version), the CP2K developers group (2018).
 CP2K is freely available from https://www.cp2k.org/ .

 Schuett, Ole; Messmer, Peter; Hutter, Juerg; VandeVondele, Joost. 
 Electronic Structure Calculations on Graphics Processing Units, John Wiley & Sons, Ltd, 173-190 (2016). 
 GPU-Accelerated Sparse Matrix-Matrix Multiplication for Linear Scaling Density Functional Theory.
 https://dx.doi.org/10.1002/9781118670712.ch8


 Del Ben, M; Schuett, O; Wentz, T; Messmer, P; Hutter, J;
 VandeVondele, J. 
 COMPUTER PHYSICS COMMUNICATIONS, 187, 120-129 (2015). 
 Enabling simulation at the fifth rung of DFT: Large scale RPA
 calculations with excellent time to solution.
 https://dx.doi.org/10.1016/j.cpc.2014.10.021


 Borstnik, U; VandeVondele, J; Weber, V; Hutter, J. 
 PARALLEL COMPUTING, 40 (5-6), 47-58 (2014). 
 Sparse matrix multiplication: The distributed block-compressed sparse
 row library.
 https://dx.doi.org/10.1016/j.parco.2014.03.012


 Hutter, J; Iannuzzi, M; Schiffmann, F; VandeVondele, J. 
 WILEY INTERDISCIPLINARY REVIEWS-COMPUTATIONAL MOLECULAR SCIENCE, 4 (1), 15-25 (2014). 
 CP2K: atomistic simulations of condensed matter systems.
 https://dx.doi.org/10.1002/wcms.1159


 Del Ben, M; Hutter, J; VandeVondele, J. 
 JOURNAL OF CHEMICAL THEORY AND COMPUTATION, 9 (6), 2654-2671 (2013). 
 Electron Correlation in the Condensed Phase from a Resolution of
 Identity Approach Based on the Gaussian and Plane Waves Scheme.
 https://dx.doi.org/10.1021/ct4002202


 Del Ben, M; Hutter, J; VandeVondele, J. 
 JOURNAL OF CHEMICAL THEORY AND COMPUTATION, 8 (11), 4177-4188 (2012). 
 Second-Order Moller-Plesset Perturbation Theory in the Condensed Phase:
 An Efficient and Massively Parallel Gaussian and Plane Waves Approach.
 https://dx.doi.org/10.1021/ct300531w


 Guidon, M; Hutter, J; VandeVondele, J. 
 JOURNAL OF CHEMICAL THEORY AND COMPUTATION, 5 (11), 3010-3021 (2009). 
 Robust Periodic Hartree-Fock Exchange for Large-Scale Simulations Using
 Gaussian Basis Sets.
 https://dx.doi.org/10.1021/ct900494g


 Guidon, M; Schiffmann, F; Hutter, J; VandeVondele, J. 
 JOURNAL OF CHEMICAL PHYSICS, 128 (21), 214104 (2008). 
 Ab initio molecular dynamics using hybrid density functionals.
 https://dx.doi.org/10.1063/1.2931945


 Frigo, M; Johnson, SG. 
 PROCEEDINGS OF THE IEEE, 93 (2), 216-231 (2005). 
 The design and implementation of FFTW3.
 https://dx.doi.org/10.1109/JPROC.2004.840301


 Lippert, G; Hutter, J; Parrinello, M. 
 THEORETICAL CHEMISTRY ACCOUNTS, 103 (2), 124-140 (1999). 
 The Gaussian and augmented-plane-wave density functional method for ab
 initio molecular dynamics simulations.
 https://dx.doi.org/10.1007/s002140050523


 Krack, M; Parrinello, M. 
 PHYSICAL CHEMISTRY CHEMICAL PHYSICS, 2 (10), 2105-2112 (2000). 
 All-electron ab-initio molecular dynamics.
 https://dx.doi.org/10.1039/b001167n


 Martyna, GJ; Tuckerman, ME. 
 JOURNAL OF CHEMICAL PHYSICS, 110 (6), 2810-2821 (1999). 
 A reciprocal space based method for treating long range interactions in
 ab initio and force-field-based calculations in clusters.
 https://dx.doi.org/10.1063/1.477923


 Perdew, JP; Burke, K; Ernzerhof, M. 
 PHYSICAL REVIEW LETTERS, 77 (18), 3865-3868 (1996). 
 Generalized gradient approximation made simple.
 https://dx.doi.org/10.1103/PhysRevLett.77.3865


 -------------------------------------------------------------------------------
 -                                                                             -
 -                                T I M I N G                                  -
 -                                                                             -
 -------------------------------------------------------------------------------
 SUBROUTINE                       CALLS  ASD         SELF TIME        TOTAL TIME
                                MAXIMUM       AVERAGE  MAXIMUM  AVERAGE  MAXIMUM
 CP2K                                 1  1.0    0.016    0.018   81.352   81.353
 qs_energies                          1  2.0    0.000    0.000   80.340   80.340
 mp2_main                             1  3.0    0.000    0.000   76.267   76.267
 mp2_gpw_main                         1  4.0    0.000    0.000   74.343   74.343
 rpa_ri_compute_en                    1  5.0    0.000    0.000   74.155   74.156
 rpa_num_int                          1  6.0    0.001    0.002   74.154   74.154
 get_l_sq_wghts_cos_tf_t_to_w         2  7.0   35.394   35.904   35.932   35.932
 get_l_sq_wghts_sin_tf_t_to_w         2  7.0   35.354   35.870   35.874   35.874
 qs_ks_build_kohn_sham_matrix         2  6.0    0.001    0.001    3.573    3.574
 scf_env_do_scf                       1  3.0    0.000    0.000    3.104    3.104
 scf_env_do_scf_inner_loop            1  4.0    0.000    0.001    3.104    3.104
 mp_sum_dm                           20  7.7    1.286    2.943    1.286    2.943
 pw_transfer                         39  8.7    0.004    0.005    2.722    2.824
 fft_wrap_pw1pw2                     31 10.0    0.001    0.001    2.664    2.767
 qs_ks_update_qs_env                  1  5.0    0.000    0.000    2.604    2.604
 rebuild_ks_matrix                    1  6.0    0.000    0.000    2.604    2.604
 fft_wrap_pw1pw2_200                 18 10.9    0.185    0.209    2.160    2.254
 fft3d_ps                            31 12.0    1.018    1.097    1.910    2.032
 compute_vec_Sigma_x_minus_vxc_       1  4.0    0.000    0.000    1.919    1.919
 -------------------------------------------------------------------------------

 The number of warnings for this run is : 1
 
 -------------------------------------------------------------------------------
  **** **** ******  **  PROGRAM ENDED AT                 2019-06-07 03:13:57.208
 ***** ** ***  *** **   PROGRAM RAN ON                                    tcopt4
 **    ****   ******    PROGRAM RAN BY                                   wilhelm
 ***** **    ** ** **   PROGRAM PROCESS ID                                 51916
  **** **  *******  **  PROGRAM STOPPED IN /data/wilhelm/2_job_test/11_GW100/3_c
                                           alcs/06_H2
