 DBCSR| CPU Multiplication driver                                           BLAS
 DBCSR| Multrec recursion limit                                              512
 DBCSR| Multiplication stack size                                           1000
 DBCSR| Maximum elements for images                                    UNLIMITED
 DBCSR| Multiplicative factor virtual images                                   1
 DBCSR| Use multiplication densification                                       T
 DBCSR| Multiplication size stacks                                             3
 DBCSR| Number of 3D layers                                               SINGLE
 DBCSR| Use MPI memory allocation                                              T
 DBCSR| Use RMA algorithm                                                      F
 DBCSR| Use Communication thread                                               T
 DBCSR| Communication thread load                                             87


  **** **** ******  **  PROGRAM STARTED AT               2019-06-08 08:45:32.633
 ***** ** ***  *** **   PROGRAM STARTED ON                                tcopt4
 **    ****   ******    PROGRAM STARTED BY                               wilhelm
 ***** **    ** ** **   PROGRAM PROCESS ID                                136698
  **** **  *******  **  PROGRAM STARTED IN /data/wilhelm/2_job_test/11_GW100/3_c
                                           alcs/06_H2

 CP2K| version string:                    CP2K version 7.0 (Development Version)
 CP2K| source code revision number:                                  git:bc2813a
 CP2K| cp2kflags: libint fftw3 libxc pexsi elpa=201705 parallel mpi3 scalapack q
 CP2K|            uip libderiv_max_am1=5 libint_max_am=6
 CP2K| is freely available from                            https://www.cp2k.org/
 CP2K| Program compiled at                         Sun Jun  2 14:38:23 CEST 2019
 CP2K| Program compiled on                                                tcopt4
 CP2K| Program compiled for                            local_valgrind_March_2019
 CP2K| Data directory path              /data/wilhelm/1_git_repository/cp2k/data
 CP2K| Input file name                                                    GW.inp

 GLOBAL| Force Environment number                                              1
 GLOBAL| Basis set file name                              BASIS_def2_QZVP_RI_ALL
 GLOBAL| Potential file name                                           POTENTIAL
 GLOBAL| MM Potential file name                                     MM_POTENTIAL
 GLOBAL| Coordinate file name                                          06_H2.xyz
 GLOBAL| Method name                                                        CP2K
 GLOBAL| Project name                                                   ALL_ELEC
 GLOBAL| Preferred FFT library                                             FFTW3
 GLOBAL| Preferred diagonalization lib.                                       SL
 GLOBAL| Run type                                                         ENERGY
 GLOBAL| All-to-all communication in single precision                          F
 GLOBAL| FFTs using library dependent lengths                                  F
 GLOBAL| Global print level                                               MEDIUM
 GLOBAL| MPI I/O enabled                                                       T
 GLOBAL| Total number of message passing processes                            24
 GLOBAL| Number of threads for this process                                    1
 GLOBAL| This output is from process                                           0
 GLOBAL| CPU model name :  Intel(R) Xeon(R) CPU E5-2697 v3 @ 2.60GHz

 MEMORY| system memory details [Kb]
 MEMORY|                        rank 0           min           max       average
 MEMORY| MemTotal            396954008     396954008     396954008     396954008
 MEMORY| MemFree             337845632     337845632     337845632     337845632
 MEMORY| Buffers                370200        370200        370200        370200
 MEMORY| Cached               42858128      42858128      42858128      42858128
 MEMORY| Slab                  1475544       1475544       1475544       1475544
 MEMORY| SReclaimable          1334492       1334492       1334492       1334492
 MEMORY| MemLikelyFree       382408452     382408452     382408452     382408452


 *** Fundamental physical constants (SI units) ***

 *** Literature: B. J. Mohr and B. N. Taylor,
 ***             CODATA recommended values of the fundamental physical
 ***             constants: 2006, Web Version 5.1
 ***             http://physics.nist.gov/constants

 Speed of light in vacuum [m/s]                             2.99792458000000E+08
 Magnetic constant or permeability of vacuum [N/A**2]       1.25663706143592E-06
 Electric constant or permittivity of vacuum [F/m]          8.85418781762039E-12
 Planck constant (h) [J*s]                                  6.62606896000000E-34
 Planck constant (h-bar) [J*s]                              1.05457162825177E-34
 Elementary charge [C]                                      1.60217648700000E-19
 Electron mass [kg]                                         9.10938215000000E-31
 Electron g factor [ ]                                     -2.00231930436220E+00
 Proton mass [kg]                                           1.67262163700000E-27
 Fine-structure constant                                    7.29735253760000E-03
 Rydberg constant [1/m]                                     1.09737315685270E+07
 Avogadro constant [1/mol]                                  6.02214179000000E+23
 Boltzmann constant [J/K]                                   1.38065040000000E-23
 Atomic mass unit [kg]                                      1.66053878200000E-27
 Bohr radius [m]                                            5.29177208590000E-11

 *** Conversion factors ***

 [u] -> [a.u.]                                              1.82288848426455E+03
 [Angstrom] -> [Bohr] = [a.u.]                              1.88972613288564E+00
 [a.u.] = [Bohr] -> [Angstrom]                              5.29177208590000E-01
 [a.u.] -> [s]                                              2.41888432650478E-17
 [a.u.] -> [fs]                                             2.41888432650478E-02
 [a.u.] -> [J]                                              4.35974393937059E-18
 [a.u.] -> [N]                                              8.23872205491840E-08
 [a.u.] -> [K]                                              3.15774647902944E+05
 [a.u.] -> [kJ/mol]                                         2.62549961709828E+03
 [a.u.] -> [kcal/mol]                                       6.27509468713739E+02
 [a.u.] -> [Pa]                                             2.94210107994716E+13
 [a.u.] -> [bar]                                            2.94210107994716E+08
 [a.u.] -> [atm]                                            2.90362800883016E+08
 [a.u.] -> [eV]                                             2.72113838565563E+01
 [a.u.] -> [Hz]                                             6.57968392072181E+15
 [a.u.] -> [1/cm] (wave numbers)                            2.19474631370540E+05
 [a.u./Bohr**2] -> [1/cm]                                   5.14048714338585E+03
 

 CELL_TOP| Volume [angstrom^3]:                                         4096.000
 CELL_TOP| Vector a [angstrom    16.000     0.000     0.000    |a| =      16.000
 CELL_TOP| Vector b [angstrom     0.000    16.000     0.000    |b| =      16.000
 CELL_TOP| Vector c [angstrom     0.000     0.000    16.000    |c| =      16.000
 CELL_TOP| Angle (b,c), alpha [degree]:                                   90.000
 CELL_TOP| Angle (a,c), beta  [degree]:                                   90.000
 CELL_TOP| Angle (a,b), gamma [degree]:                                   90.000
 CELL_TOP| Numerically orthorhombic:                                         YES

 GENERATE|  Preliminary Number of Bonds generated:                             0
 GENERATE|  Achieved consistency in connectivity generation.

 CELL| Volume [angstrom^3]:                                             4096.000
 CELL| Vector a [angstrom]:      16.000     0.000     0.000    |a| =      16.000
 CELL| Vector b [angstrom]:       0.000    16.000     0.000    |b| =      16.000
 CELL| Vector c [angstrom]:       0.000     0.000    16.000    |c| =      16.000
 CELL| Angle (b,c), alpha [degree]:                                       90.000
 CELL| Angle (a,c), beta  [degree]:                                       90.000
 CELL| Angle (a,b), gamma [degree]:                                       90.000
 CELL| Numerically orthorhombic:                                             YES

 CELL_REF| Volume [angstrom^3]:                                         4096.000
 CELL_REF| Vector a [angstrom    16.000     0.000     0.000    |a| =      16.000
 CELL_REF| Vector b [angstrom     0.000    16.000     0.000    |b| =      16.000
 CELL_REF| Vector c [angstrom     0.000     0.000    16.000    |c| =      16.000
 CELL_REF| Angle (b,c), alpha [degree]:                                   90.000
 CELL_REF| Angle (a,c), beta  [degree]:                                   90.000
 CELL_REF| Angle (a,b), gamma [degree]:                                   90.000
 CELL_REF| Numerically orthorhombic:                                         YES

 *******************************************************************************
 *******************************************************************************
 **                                                                           **
 **     #####                         ##              ##                      **
 **    ##   ##            ##          ##              ##                      **
 **   ##     ##                       ##            ######                    **
 **   ##     ##  ##   ##  ##   #####  ##  ##   ####   ##    #####    #####    **
 **   ##     ##  ##   ##  ##  ##      ## ##   ##      ##   ##   ##  ##   ##   **
 **   ##  ## ##  ##   ##  ##  ##      ####     ###    ##   ######   ######    **
 **    ##  ###   ##   ##  ##  ##      ## ##      ##   ##   ##       ##        **
 **     #######   #####   ##   #####  ##  ##  ####    ##    #####   ##        **
 **           ##                                                    ##        **
 **                                                                           **
 **                                                ... make the atoms dance   **
 **                                                                           **
 **            Copyright (C) by CP2K developers group (2000 - 2019)           **
 **                                                                           **
 *******************************************************************************

 DFT| Spin restricted Kohn-Sham (RKS) calculation                            RKS
 DFT| Multiplicity                                                             1
 DFT| Number of spin states                                                    1
 DFT| Charge                                                                   0
 DFT| Self-interaction correction (SIC)                                       NO
 DFT| Cutoffs: density                                              1.000000E-10
 DFT|          gradient                                             1.000000E-10
 DFT|          tau                                                  1.000000E-10
 DFT|          cutoff_smoothing_range                               0.000000E+00
 DFT| XC density smoothing                                                  NONE
 DFT| XC derivatives                                                          PW
 FUNCTIONAL| ROUTINE=NEW
 FUNCTIONAL| PBE:
 FUNCTIONAL| J.P.Perdew, K.Burke, M.Ernzerhof, Phys. Rev. Letter, vol. 77, n 18,
 FUNCTIONAL|  pp. 3865-3868, (1996){spin unpolarized}                           

 QS| Method:                                                                GAPW
 QS| Density plane wave grid type                        NON-SPHERICAL FULLSPACE
 QS| Number of grid levels:                                                    4
 QS| Density cutoff [a.u.]:                                                200.0
 QS| Multi grid cutoff [a.u.]: 1) grid level                               200.0
 QS|                           2) grid level                                66.7
 QS|                           3) grid level                                22.2
 QS|                           4) grid level                                 7.4
 QS| Grid level progression factor:                                          3.0
 QS| Relative density cutoff [a.u.]:                                        25.0
 QS| Consistent realspace mapping and integration 
 QS| Interaction thresholds: eps_pgf_orb:                                1.0E-05
 QS|                         eps_filter_matrix:                          0.0E+00
 QS|                         eps_core_charge:                            1.0E-12
 QS|                         eps_rho_gspace:                             1.0E-10
 QS|                         eps_rho_rspace:                             1.0E-10
 QS|                         eps_gvg_rspace:                             1.0E-05
 QS|                         eps_ppl:                                    1.0E-02
 QS|                         eps_ppnl:                                   1.0E-07
 QS| GAPW|                   eps_fit:                                    1.0E-04
 QS| GAPW|                   eps_iso:                                    1.0E-12
 QS| GAPW|                   eps_svd:                                    1.0E-08
 QS| GAPW|                   eps_cpc:                                    1.0E-10
 QS| GAPW|   atom-r-grid: quadrature:                 GC_LOG                        
 QS| GAPW|      atom-s-grid:  max l :                                          6
 QS| GAPW|      max_l_rho0 :                                                   2


 ATOMIC KIND INFORMATION

  1. Atomic kind: H                                     Number of atoms:       2

     Orbital Basis Set                                                 def2-QZVP

       Number of orbital shell sets:                                          10
       Number of orbital shells:                                              10
       Number of primitive Cartesian functions:                               13
       Number of Cartesian basis functions:                                   35
       Number of spherical basis functions:                                   30
       Norm type:                                                              2

       Normalised Cartesian orbitals:

                        Set   Shell   Orbital            Exponent    Coefficient

                          1       1    1s              190.691690       0.195396
                                                        28.605532       0.363661
                                                         6.509594       0.612837
                                                         1.841246       0.914889

                          2       1    1s                0.598537       0.484985

                          3       1    1s                0.213976       0.224225

                          4       1    1s                0.080316       0.107526

                          5       1    1px               2.292000       4.019836
                          5       1    1py               2.292000       4.019836
                          5       1    1pz               2.292000       4.019836

                          6       1    1px               0.838000       1.142865
                          6       1    1py               0.838000       1.142865
                          6       1    1pz               0.838000       1.142865

                          7       1    1px               0.292000       0.305963
                          7       1    1py               0.292000       0.305963
                          7       1    1pz               0.292000       0.305963

                          8       1    1dx2              2.062000       5.840024
                          8       1    1dxy              2.062000      10.115218
                          8       1    1dxz              2.062000      10.115218
                          8       1    1dy2              2.062000       5.840024
                          8       1    1dyz              2.062000      10.115218
                          8       1    1dz2              2.062000       5.840024

                          9       1    1dx2              0.662000       0.799670
                          9       1    1dxy              0.662000       1.385069
                          9       1    1dxz              0.662000       1.385069
                          9       1    1dy2              0.662000       0.799670
                          9       1    1dyz              0.662000       1.385069
                          9       1    1dz2              0.662000       0.799670

                         10       1    1fx3              1.397000       3.123535
                         10       1    1fx2y             1.397000       6.984436
                         10       1    1fx2z             1.397000       6.984436
                         10       1    1fxy2             1.397000       6.984436
                         10       1    1fxyz             1.397000      12.097399
                         10       1    1fxz2             1.397000       6.984436
                         10       1    1fy3              1.397000       3.123535
                         10       1    1fy2z             1.397000       6.984436
                         10       1    1fyz2             1.397000       6.984436
                         10       1    1fz3              1.397000       3.123535

     RI Auxiliary Basis Set                                                RI-5Z

       Number of orbital shell sets:                                          21
       Number of orbital shells:                                              21
       Number of primitive Cartesian functions:                               21
       Number of Cartesian basis functions:                                  126
       Number of spherical basis functions:                                   91
       Norm type:                                                              2

       Normalised Cartesian orbitals:

                        Set   Shell   Orbital            Exponent    Coefficient

                          1       1    1s               23.321500       7.563581

                          2       1    1s                4.922970       2.355486

                          3       1    1s                1.775100       1.096042

                          4       1    1s                0.994218       0.709613

                          5       1    1s                0.506054       0.427620

                          6       1    1s                0.236911       0.242019

                          7       1    1px               5.974580      13.314483
                          7       1    1py               5.974580      13.314483
                          7       1    1pz               5.974580      13.314483

                          8       1    1px               2.052170       3.501118
                          8       1    1py               2.052170       3.501118
                          8       1    1pz               2.052170       3.501118

                          9       1    1px               1.248660       1.881462
                          9       1    1py               1.248660       1.881462
                          9       1    1pz               1.248660       1.881462

                         10       1    1px               0.805545       1.087808
                         10       1    1py               0.805545       1.087808
                         10       1    1pz               0.805545       1.087808

                         11       1    1px               0.347892       0.380843
                         11       1    1py               0.347892       0.380843
                         11       1    1pz               0.347892       0.380843

                         12       1    1dx2              3.858160      17.481346
                         12       1    1dxy              3.858160      30.278579
                         12       1    1dxz              3.858160      30.278579
                         12       1    1dy2              3.858160      17.481346
                         12       1    1dyz              3.858160      30.278579
                         12       1    1dz2              3.858160      17.481346

                         13       1    1dx2              1.710630       4.211459
                         13       1    1dxy              1.710630       7.294461
                         13       1    1dxz              1.710630       7.294461
                         13       1    1dy2              1.710630       4.211459
                         13       1    1dyz              1.710630       7.294461
                         13       1    1dz2              1.710630       4.211459

                         14       1    1dx2              0.979237       1.586584
                         14       1    1dxy              0.979237       2.748044
                         14       1    1dxz              0.979237       2.748044
                         14       1    1dy2              0.979237       1.586584
                         14       1    1dyz              0.979237       2.748044
                         14       1    1dz2              0.979237       1.586584

                         15       1    1dx2              0.625366       0.723843
                         15       1    1dxy              0.625366       1.253733
                         15       1    1dxz              0.625366       1.253733
                         15       1    1dy2              0.625366       0.723843
                         15       1    1dyz              0.625366       1.253733
                         15       1    1dz2              0.625366       0.723843

                         16       1    1fx3              3.101510      18.792914
                         16       1    1fx2y             3.101510      42.022232
                         16       1    1fx2z             3.101510      42.022232
                         16       1    1fxy2             3.101510      42.022232
                         16       1    1fxyz             3.101510      72.784641
                         16       1    1fxz2             3.101510      42.022232
                         16       1    1fy3              3.101510      18.792914
                         16       1    1fy2z             3.101510      42.022232
                         16       1    1fyz2             3.101510      42.022232
                         16       1    1fz3              3.101510      18.792914

                         17       1    1fx3              1.198110       2.210915
                         17       1    1fx2y             1.198110       4.943756
                         17       1    1fx2z             1.198110       4.943756
                         17       1    1fxy2             1.198110       4.943756
                         17       1    1fxyz             1.198110       8.562836
                         17       1    1fxz2             1.198110       4.943756
                         17       1    1fy3              1.198110       2.210915
                         17       1    1fy2z             1.198110       4.943756
                         17       1    1fyz2             1.198110       4.943756
                         17       1    1fz3              1.198110       2.210915

                         18       1    1fx3              0.572873       0.420326
                         18       1    1fx2y             0.572873       0.939876
                         18       1    1fx2z             0.572873       0.939876
                         18       1    1fxy2             0.572873       0.939876
                         18       1    1fxyz             0.572873       1.627914
                         18       1    1fxz2             0.572873       0.939876
                         18       1    1fy3              0.572873       0.420326
                         18       1    1fy2z             0.572873       0.939876
                         18       1    1fyz2             0.572873       0.939876
                         18       1    1fz3              0.572873       0.420326

                         19       1    1gx4              2.987800      22.576266
                         19       1    1gx3y             2.987800      59.731185
                         19       1    1gx3z             2.987800      59.731185
                         19       1    1gx2y2            2.987800      77.112629
                         19       1    1gx2yz            2.987800     133.562991
                         19       1    1gx2z2            2.987800      77.112629
                         19       1    1gxy3             2.987800      59.731185
                         19       1    1gxy2z            2.987800     133.562991
                         19       1    1gxyz2            2.987800     133.562991
                         19       1    1gxz3             2.987800      59.731185
                         19       1    1gy4              2.987800      22.576266
                         19       1    1gy3z             2.987800      59.731185
                         19       1    1gy2z2            2.987800      77.112629
                         19       1    1gyz3             2.987800      59.731185
                         19       1    1gz4              2.987800      22.576266

                         20       1    1gx4              1.231920       1.974865
                         20       1    1gx3y             1.231920       5.225001
                         20       1    1gx3z             1.231920       5.225001
                         20       1    1gx2y2            1.231920       6.745447
                         20       1    1gx2yz            1.231920      11.683456
                         20       1    1gx2z2            1.231920       6.745447
                         20       1    1gxy3             1.231920       5.225001
                         20       1    1gxy2z            1.231920      11.683456
                         20       1    1gxyz2            1.231920      11.683456
                         20       1    1gxz3             1.231920       5.225001
                         20       1    1gy4              1.231920       1.974865
                         20       1    1gy3z             1.231920       5.225001
                         20       1    1gy2z2            1.231920       6.745447
                         20       1    1gyz3             1.231920       5.225001
                         20       1    1gz4              1.231920       1.974865

                         21       1    1hx5              3.247390      34.106027
                         21       1    1hx4y             3.247390     102.318080
                         21       1    1hx4z             3.247390     102.318080
                         21       1    1hx3y2            3.247390     156.293448
                         21       1    1hx3yz            3.247390     270.708193
                         21       1    1hx3z2            3.247390     156.293448
                         21       1    1hx2y3            3.247390     156.293448
                         21       1    1hx2y2z           3.247390     349.482775
                         21       1    1hx2yz2           3.247390     349.482775
                         21       1    1hx2z3            3.247390     156.293448
                         21       1    1hxy4             3.247390     102.318080
                         21       1    1hxy3z            3.247390     270.708193
                         21       1    1hxy2z2           3.247390     349.482775
                         21       1    1hxyz3            3.247390     270.708193
                         21       1    1hxz4             3.247390     102.318080
                         21       1    1hy5              3.247390      34.106027
                         21       1    1hy4z             3.247390     102.318080
                         21       1    1hy3z2            3.247390     156.293448
                         21       1    1hy2z3            3.247390     156.293448
                         21       1    1hyz4             3.247390     102.318080
                         21       1    1hz5              3.247390      34.106027

     The atoms of this atomic kind are PAW atoms (GAPW):
       Hard Gaussian function radius:                                      1.200
       Rho0 radius:                                                        1.200
       Maximum GTO radius used for PAW projector construction:            24.566

     GAPW Soft Basis Set                                          def2-QZVP_soft

       Number of orbital shell sets:                                          10
       Number of orbital shells:                                              10
       Number of primitive Cartesian functions:                               10
       Number of Cartesian basis functions:                                   35
       Number of spherical basis functions:                                   30
       Norm type:                                                              2

       Normalised Cartesian orbitals:

                        Set   Shell   Orbital            Exponent    Coefficient

                          1       1    1s                1.841246       0.914889

                          2       1    1s                0.598537       0.484985

                          3       1    1s                0.213976       0.224225

                          4       1    1s                0.080316       0.107526

                          5       1    1px               2.292000       4.019836
                          5       1    1py               2.292000       4.019836
                          5       1    1pz               2.292000       4.019836

                          6       1    1px               0.838000       1.142865
                          6       1    1py               0.838000       1.142865
                          6       1    1pz               0.838000       1.142865

                          7       1    1px               0.292000       0.305963
                          7       1    1py               0.292000       0.305963
                          7       1    1pz               0.292000       0.305963

                          8       1    1dx2              2.062000       5.840024
                          8       1    1dxy              2.062000      10.115218
                          8       1    1dxz              2.062000      10.115218
                          8       1    1dy2              2.062000       5.840024
                          8       1    1dyz              2.062000      10.115218
                          8       1    1dz2              2.062000       5.840024

                          9       1    1dx2              0.662000       0.799670
                          9       1    1dxy              0.662000       1.385069
                          9       1    1dxz              0.662000       1.385069
                          9       1    1dy2              0.662000       0.799670
                          9       1    1dyz              0.662000       1.385069
                          9       1    1dz2              0.662000       0.799670

                         10       1    1fx3              1.397000       3.123535
                         10       1    1fx2y             1.397000       6.984436
                         10       1    1fx2z             1.397000       6.984436
                         10       1    1fxy2             1.397000       6.984436
                         10       1    1fxyz             1.397000      12.097399
                         10       1    1fxz2             1.397000       6.984436
                         10       1    1fy3              1.397000       3.123535
                         10       1    1fy2z             1.397000       6.984436
                         10       1    1fyz2             1.397000       6.984436
                         10       1    1fz3              1.397000       3.123535

     AE Potential information for                                            ALL

       Description:                                       All-electron potential
                                          Krack, Parrinello, PCCP 2, 2105 (2000)

       Gaussian exponent of the core charge distribution:              12.500000
       Electronic configuration (s p d ...):                           1   0   0


 MOLECULE KIND INFORMATION


 All atoms are their own molecule, skipping detailed information


 TOTAL NUMBERS AND MAXIMUM NUMBERS

  Total number of            - Atomic kinds:                                   1
                             - Atoms:                                          2
                             - Shell sets:                                    20
                             - Shells:                                        20
                             - Primitive Cartesian functions:                 26
                             - Cartesian basis functions:                     70
                             - Spherical basis functions:                     60

  Maximum angular momentum of the orbital basis functions:                     3


 MODULE QUICKSTEP:  ATOMIC COORDINATES IN angstrom

  Atom  Kind  Element       X           Y           Z          Z(eff)       Mass

       1     1 H    1    8.000000    8.000000    7.629280      1.00       1.0079
       2     1 H    1    8.000000    8.000000    8.370720      1.00       1.0079




 SCF PARAMETERS         Density guess:                                   RESTART
                        --------------------------------------------------------
                        max_scf:                                             200
                        max_scf_history:                                       0
                        max_diis:                                              4
                        --------------------------------------------------------
                        eps_scf:                                        1.00E-06
                        eps_scf_history:                                0.00E+00
                        eps_diis:                                       1.00E-01
                        eps_eigval:                                     1.00E-05
                        --------------------------------------------------------
                        level_shift [a.u.]:                                 0.00
                        --------------------------------------------------------
                        Mixing method:                           DIRECT_P_MIXING
                        --------------------------------------------------------
                        No outer SCF

 PW_GRID| Information for grid number                                          1
 PW_GRID| Grid distributed over                                    24 processors
 PW_GRID| Real space group dimensions                                    24    1
 PW_GRID| the grid is blocked:                                                NO
 PW_GRID| Cutoff [a.u.]                                                    400.0
 PW_GRID| spherical cutoff:                                                   NO
 PW_GRID|   Bounds   1           -144     143                Points:         288
 PW_GRID|   Bounds   2           -144     143                Points:         288
 PW_GRID|   Bounds   3           -144     143                Points:         288
 PW_GRID| Volume element (a.u.^3)  0.1157E-02     Volume (a.u.^3)     27641.1785
 PW_GRID| Grid span                                                    FULLSPACE
 PW_GRID|   Distribution                         Average         Max         Min
 PW_GRID|   G-Vectors                           995328.0      995328      995328
 PW_GRID|   G-Rays                                3456.0        3456        3456
 PW_GRID|   Real Space Points                   995328.0      995328      995328

 PW_GRID| Information for grid number                                          2
 PW_GRID| Grid distributed over                                    24 processors
 PW_GRID| Real space group dimensions                                    24    1
 PW_GRID| the grid is blocked:                                                NO
 PW_GRID| Cutoff [a.u.]                                                    200.0
 PW_GRID| spherical cutoff:                                                   NO
 PW_GRID|   Bounds   1           -100      99                Points:         200
 PW_GRID|   Bounds   2           -100      99                Points:         200
 PW_GRID|   Bounds   3           -100      99                Points:         200
 PW_GRID| Volume element (a.u.^3)  0.3455E-02     Volume (a.u.^3)     27641.1785
 PW_GRID| Grid span                                                    FULLSPACE
 PW_GRID|   Distribution                         Average         Max         Min
 PW_GRID|   G-Vectors                           333333.3      333600      333200
 PW_GRID|   G-Rays                                1666.7        1668        1666
 PW_GRID|   Real Space Points                   333333.3      360000      320000

 PW_GRID| Information for grid number                                          3
 PW_GRID| Grid distributed over                                    24 processors
 PW_GRID| Real space group dimensions                                    24    1
 PW_GRID| the grid is blocked:                                                NO
 PW_GRID| Cutoff [a.u.]                                                     66.7
 PW_GRID| spherical cutoff:                                                   NO
 PW_GRID|   Bounds   1            -60      59                Points:         120
 PW_GRID|   Bounds   2            -60      59                Points:         120
 PW_GRID|   Bounds   3            -60      59                Points:         120
 PW_GRID| Volume element (a.u.^3)  0.1600E-01     Volume (a.u.^3)     27641.1785
 PW_GRID| Grid span                                                    FULLSPACE
 PW_GRID|   Distribution                         Average         Max         Min
 PW_GRID|   G-Vectors                            72000.0       72360       71760
 PW_GRID|   G-Rays                                 600.0         603         598
 PW_GRID|   Real Space Points                    72000.0       72000       72000

 PW_GRID| Information for grid number                                          4
 PW_GRID| Grid distributed over                                    24 processors
 PW_GRID| Real space group dimensions                                    24    1
 PW_GRID| the grid is blocked:                                                NO
 PW_GRID| Cutoff [a.u.]                                                     22.2
 PW_GRID| spherical cutoff:                                                   NO
 PW_GRID|   Bounds   1            -36      35                Points:          72
 PW_GRID|   Bounds   2            -36      35                Points:          72
 PW_GRID|   Bounds   3            -36      35                Points:          72
 PW_GRID| Volume element (a.u.^3)  0.7406E-01     Volume (a.u.^3)     27641.1785
 PW_GRID| Grid span                                                    FULLSPACE
 PW_GRID|   Distribution                         Average         Max         Min
 PW_GRID|   G-Vectors                            15552.0       15768       15408
 PW_GRID|   G-Rays                                 216.0         219         214
 PW_GRID|   Real Space Points                    15552.0       15552       15552

 PW_GRID| Information for grid number                                          5
 PW_GRID| Grid distributed over                                    24 processors
 PW_GRID| Real space group dimensions                                    24    1
 PW_GRID| the grid is blocked:                                                NO
 PW_GRID| Cutoff [a.u.]                                                      7.4
 PW_GRID| spherical cutoff:                                                   NO
 PW_GRID|   Bounds   1            -20      19                Points:          40
 PW_GRID|   Bounds   2            -20      19                Points:          40
 PW_GRID|   Bounds   3            -20      19                Points:          40
 PW_GRID| Volume element (a.u.^3)  0.4319         Volume (a.u.^3)     27641.1785
 PW_GRID| Grid span                                                    FULLSPACE
 PW_GRID|   Distribution                         Average         Max         Min
 PW_GRID|   G-Vectors                             2666.7        2720        2640
 PW_GRID|   G-Rays                                  66.7          68          66
 PW_GRID|   Real Space Points                     2666.7        3200        1600

 POISSON| Solver                                          Martyna-Tuckerman (MT)
 POISSON| MT| Alpha                                                        7.000
 POISSON| MT| Relative cutoff                                                2.0
 POISSON| Periodicity                                                       NONE

 RS_GRID| Information for grid number                                          2
 RS_GRID|   Bounds   1           -100      99                Points:         200
 RS_GRID|   Bounds   2           -100      99                Points:         200
 RS_GRID|   Bounds   3           -100      99                Points:         200
 RS_GRID| Real space distribution over                                  4 groups
 RS_GRID| Real space distribution along direction                              2
 RS_GRID| Border size                                                         24
 RS_GRID| Real space distribution over                                  6 groups
 RS_GRID| Real space distribution along direction                              3
 RS_GRID| Border size                                                         24
 RS_GRID|   Distribution                         Average         Max         Min
 RS_GRID|   Planes                                  98.0          98          98
 RS_GRID|   Distribution                         Average         Max         Min
 RS_GRID|   Planes                                  81.3          82          81

 RS_GRID| Information for grid number                                          3
 RS_GRID|   Bounds   1            -60      59                Points:         120
 RS_GRID|   Bounds   2            -60      59                Points:         120
 RS_GRID|   Bounds   3            -60      59                Points:         120
 RS_GRID| Real space distribution over                                  4 groups
 RS_GRID| Real space distribution along direction                              2
 RS_GRID| Border size                                                         24
 RS_GRID| Real space distribution over                                  6 groups
 RS_GRID| Real space distribution along direction                              3
 RS_GRID| Border size                                                         24
 RS_GRID|   Distribution                         Average         Max         Min
 RS_GRID|   Planes                                  78.0          78          78
 RS_GRID|   Distribution                         Average         Max         Min
 RS_GRID|   Planes                                  68.0          68          68

 RS_GRID| Information for grid number                                          4
 RS_GRID|   Bounds   1            -36      35                Points:          72
 RS_GRID|   Bounds   2            -36      35                Points:          72
 RS_GRID|   Bounds   3            -36      35                Points:          72
 RS_GRID| Real space fully replicated
 RS_GRID| Group size                                                           1

 RS_GRID| Information for grid number                                          5
 RS_GRID|   Bounds   1            -20      19                Points:          40
 RS_GRID|   Bounds   2            -20      19                Points:          40
 RS_GRID|   Bounds   3            -20      19                Points:          40
 RS_GRID| Real space fully replicated
 RS_GRID| Group size                                                           1
 
 RI-RPA| using GPW style
 

  HFX_INFO| Replica ID:                                                        1
  HFX_INFO| EPS_SCHWARZ:                                                 2.0E-17
  HFX_INFO| EPS_SCHWARZ_FORCES                                           1.0E-06
  HFX_INFO| EPS_STORAGE_SCALING:                                         1.0E+00
  HFX_INFO| NBINS:                                                            64
  HFX_INFO| BLOCK_SIZE:                                                        1
  HFX_INFO| FRACTION:                                               1.0000000000
  HFX_INFO| Interaction Potential:                                       COULOMB
  HFX_INFO| Number of periodic shells considered:                           NONE
  HFX_INFO| Number of periodic cells considered:                            NONE


 Number of electrons:                                                          2
 Number of occupied orbitals:                                                  1
 Number of molecular orbitals:                                                 1

 Number of orbital functions:                                                 60
 Number of independent orbital functions:                                     60

 Extrapolation method: initial_guess


 SCF WAVEFUNCTION OPTIMIZATION

  Step     Update method      Time    Convergence         Total energy    Change
  ------------------------------------------------------------------------------
     1 P_Mix/Diag. 0.40E+00    2.5     1.5093E-12        -1.1666391867 -1.17E+00

  *** SCF run converged in     1 steps ***


  Electronic density on regular grids:         -1.9382199903        0.0617800097
  Core density on regular grids:                2.0000000000       -0.0000000000
  Hard and soft densities (Lebedev):           -5.3235708360       -5.2617869766
  Total Rho_soft + Rho1_hard - Rho1_soft       -2.0000038497
  Total charge density (r-space):              -0.0000038497
  Total Rho_soft + Rho0_soft (g-space):        -0.0000038561

  Overlap energy of the core charge distribution:               0.00000051968942
  Self energy of the core charge distribution:                 -2.82094791773878
  Core Hamiltonian energy:                                      0.98137646137496
  Hartree energy:                                               1.07918617315143
  Exchange-correlation energy:                                 -0.64822396998620

  GAPW| Exc from hard and soft atomic rho1:                    -0.04241293853490
  GAPW| local Eh = 1 center integrals:                          0.28438248538706

  Total energy:                                                -1.16663918665701

 !-----------------------------------------------------------------------------!
                     Mulliken Population Analysis

 #  Atom  Element  Kind  Atomic population                           Net charge
       1     H        1          1.000000                             -0.000000
       2     H        1          1.000000                              0.000000
 # Total charge                              2.000000                 -0.000000

 !-----------------------------------------------------------------------------!

 !-----------------------------------------------------------------------------!
                           Hirshfeld Charges

  #Atom  Element  Kind  Ref Charge     Population                    Net charge
      1       H      1       1.000          0.905                         0.095
      2       H      1       1.000          0.905                         0.095

  Total Charge                                                            0.191
 !-----------------------------------------------------------------------------!


 RI-RPA section
 --------------

  Used number of processes per group:                                          1
  Maximum allowed memory usage per MPI processes:                     200.00 MiB

  HFX_MEM_INFO| Est. max. program size before HFX [MiB]:                     376
  HFX_MEM_INFO| Number of cart. primitive ERI's calculated:             12493488
  HFX_MEM_INFO| Number of sph. ERI's calculated:                         4860000
  HFX_MEM_INFO| Number of sph. ERI's stored in-core:                     4860000
  HFX_MEM_INFO| Number of sph. ERI's stored on disk:                           0
  HFX_MEM_INFO| Number of sph. ERI's calculated on the fly:                    0
  HFX_MEM_INFO| Total memory consumption ERI's RAM [MiB]:                     30
  HFX_MEM_INFO| Whereof max-vals [MiB]:                                        1
  HFX_MEM_INFO| Total compression factor ERI's RAM:                         1.26
  HFX_MEM_INFO| Total memory consumption ERI's disk [MiB]:                     0
  HFX_MEM_INFO| Total compression factor ERI's disk:                        0.00
  HFX_MEM_INFO| Size of density/Fock matrix [MiB]:                             0
  HFX_MEM_INFO| Size of buffers [MiB]:                                         0
  HFX_MEM_INFO| Est. max. program size after HFX  [MiB]:                     377

  GPW_INFO| Density cutoff [a.u.]:                                         150.0
  GPW_INFO| Relative density cutoff [a.u.]:                                 25.0
  RI_INFO| Cholesky decomposition group size:                                 24
  RI_INFO| Number of groups for auxiliary basis functions                     24
  RI_INFO| Occupied  basis set size:                                           1
  RI_INFO| Virtual   basis set size:                                          59
  RI_INFO| Auxiliary basis set size:                                         182
  RI_INFO| Total memory for (ia|K) integrals:                           0.08 MiB
  RI_INFO| Group size for frequency integration:                              24
  INTEG_INFO| MINIMAX quadrature
  INTEG_INFO| Number of integration points:                                   14
  INTEG_INFO| Number of integration points per RPA group:                     14
  MATRIX_INFO| Number row processes:                                           4
  MATRIX_INFO| Number column processes:                                        6
  MATRIX_INFO| Row block size:                                                 7
  MATRIX_INFO| Column block size:                                             15
 SIZE(fm_matrix_L_RI_metric, 1) =           1
 SIZE(fm_matrix_L_RI_metric, 2) =           1
 SIZE(fm_matrix_L_RI_metric, 1) =           1
 SIZE(fm_matrix_L_RI_metric, 2) =           1
 SIZE(fm_matrix_L_RI_metric, 1) =           1
 SIZE(fm_matrix_L_RI_metric, 2) =           1
 SIZE(fm_matrix_L_RI_metric, 1) =           1
 SIZE(fm_matrix_L_RI_metric, 2) =           1
 SIZE(fm_matrix_L_RI_metric, 1) =           1
 SIZE(fm_matrix_L_RI_metric, 2) =           1
 SIZE(fm_matrix_L_RI_metric, 1) =           1
 SIZE(fm_matrix_L_RI_metric, 2) =           1
 SIZE(fm_matrix_L_RI_metric, 1) =           1
 SIZE(fm_matrix_L_RI_metric, 2) =           1
 SIZE(fm_matrix_L_RI_metric, 1) =           1
 SIZE(fm_matrix_L_RI_metric, 2) =           1
 SIZE(fm_matrix_L_RI_metric, 1) =           1
 SIZE(fm_matrix_L_RI_metric, 2) =           1
 SIZE(fm_matrix_L_RI_metric, 1) =           1
 SIZE(fm_matrix_L_RI_metric, 2) =           1
 SIZE(fm_matrix_L_RI_metric, 1) =           1
 SIZE(fm_matrix_L_RI_metric, 2) =           1
 SIZE(fm_matrix_L_RI_metric, 1) =           1
 SIZE(fm_matrix_L_RI_metric, 2) =           1
 SIZE(fm_matrix_L_RI_metric, 1) =           1
 SIZE(fm_matrix_L_RI_metric, 2) =           1
 SIZE(fm_matrix_L_RI_metric, 1) =           1
 SIZE(fm_matrix_L_RI_metric, 2) =           1
 SIZE(fm_matrix_L_RI_metric, 1) =           1
 SIZE(fm_matrix_L_RI_metric, 2) =           1
 SIZE(fm_matrix_L_RI_metric, 1) =           1
 SIZE(fm_matrix_L_RI_metric, 2) =           1
 SIZE(fm_matrix_L_RI_metric, 1) =           1
 SIZE(fm_matrix_L_RI_metric, 2) =           1
 SIZE(fm_matrix_L_RI_metric, 1) =           1
 SIZE(fm_matrix_L_RI_metric, 2) =           1
 SIZE(fm_matrix_L_RI_metric, 1) =           1
 SIZE(fm_matrix_L_RI_metric, 2) =           1
 SIZE(fm_matrix_L_RI_metric, 1) =           1
 SIZE(fm_matrix_L_RI_metric, 2) =           1
 SIZE(fm_matrix_L_RI_metric, 1) =           1
 SIZE(fm_matrix_L_RI_metric, 2) =           1
 SIZE(fm_matrix_L_RI_metric, 1) =           1
 SIZE(fm_matrix_L_RI_metric, 2) =           1
 SIZE(fm_matrix_L_RI_metric, 1) =           1
 SIZE(fm_matrix_L_RI_metric, 2) =           1
 SIZE(fm_matrix_L_RI_metric, 1) =           1
 SIZE(fm_matrix_L_RI_metric, 2) =           1
  INTEG_INFO| Range for the minimax approximation:                       31.0189
  INTEG_INFO| Minimax parameters:                    Weights           Abscissas
                                                1.2620734719        0.1564079380
                                                1.3949384553        0.4856528110
                                                1.6782008233        0.8663567811
                                                2.1490207366        1.3403154621
                                                2.8694610551        1.9615735155
                                                3.9368885867        2.8038150828
                                                5.5034078831        3.9713632712
                                                7.8143213586        5.6170910723
                                               11.2941839690        7.9749345994
                                               16.7705895468       11.4279740952
                                               26.1606993435       16.6782320456
                                               45.0642069068       25.2678934331
                                               96.4633872287       41.7093371716
                                              368.2983383599       88.5237334966
  INTEG_INFO| Range for the minimax approximation:                       31.0189
  INTEG_INFO| Gap:                                                        0.4112
  INTEG_INFO| Minimax parameters of the time grid:   Weights           Abscissas
                                                0.0131323920        0.0051015368
                                                0.0313922801        0.0272380174
                                                0.0518183151        0.0686012633
                                                0.0761216071        0.1321585689
                                                0.1067968669        0.2229559927
                                                0.1474571580        0.3490645453
                                                0.2031635114        0.5228659103
                                                0.2807930907        0.7626722410
                                                0.3897653414        1.0948552209
                                                0.5437315972        1.5571166042
                                                0.7645702609        2.2044223576
                                                1.0932327246        3.1216824198
                                                1.6282370073        4.4576502416
                                                2.7545995880        6.5591921732
  INTEG_INFO| Maximum deviation of the imag. time fit:                  2.01E-06
 e_fermi = (a.u. / eV) -0.17586518300941054       -4.7854674948690699     
  MEMORY_INFO| Memory cut:                                                     1
  MEMORY_INFO| Im. time group size for RI functions:                           1
  MEMORY_INFO| Im. time group size for local P matrix:                         1
  SPARSITY_INFO| Eps pgf orb for imaginary time:                        1.00E-30
  SPARSITY_INFO| Eps filter for imaginary time:                         1.00E-30
  SPARSITY_INFO| Second eps filter for imaginary time:                  1.00E-30
  RPA_IM_TIME_INFO| Number of periodic images T for Chi_PQ^T(it):              1
  RPA_IM_TIME_INFO| Number of periodic images T for Chi_PQ^T(it):              1
  RPA_IM_TIME_INFO| Number of periodic images T for Chi_PQ^T(it):              1
  RPA_IM_TIME_INFO| Number of periodic images T for Chi_PQ^T(it):              1
  RPA_IM_TIME_INFO| Number of periodic images T for Chi_PQ^T(it):              1
  RPA_IM_TIME_INFO| Number of periodic images T for Chi_PQ^T(it):              1
  RPA_IM_TIME_INFO| Number of periodic images T for Chi_PQ^T(it):              1
  RPA_IM_TIME_INFO| Number of periodic images T for Chi_PQ^T(it):              1
  RPA_IM_TIME_INFO| Number of periodic images T for Chi_PQ^T(it):              1
  RPA_IM_TIME_INFO| Number of periodic images T for Chi_PQ^T(it):              1
  RPA_IM_TIME_INFO| Number of periodic images T for Chi_PQ^T(it):              1
  RPA_IM_TIME_INFO| Number of periodic images T for Chi_PQ^T(it):              1
  RPA_IM_TIME_INFO| Number of periodic images T for Chi_PQ^T(it):              1
  RPA_IM_TIME_INFO| Number of periodic images T for Chi_PQ^T(it):              1
 after Cholesky dec. mat Q_11           1   6.4307692279084797E-002   1.1588350110726973     
 after Cholesky dec. mat Q_11           2  0.19967791859896178        1.1469123731147890     
 after Cholesky dec. mat Q_11           3  0.35620573978758191        1.1269093642914776     
 after Cholesky dec. mat Q_11           4  0.55107557434657994        1.1038431227041863     
 after Cholesky dec. mat Q_11           5  0.80650808132665108        1.0813939495476308     
 after Cholesky dec. mat Q_11           6   1.1527987633107877        1.0613787534201218     
 after Cholesky dec. mat Q_11           7   1.6328404450403653        1.0445642523560432     
 after Cholesky dec. mat Q_11           8   2.3094874127631604        1.0312341062117927     
 after Cholesky dec. mat Q_11           9   3.2789233497821115        1.0211558208667997     
 after Cholesky dec. mat Q_11          10   4.6986530904628498        1.0137117360576113     
 after Cholesky dec. mat Q_11          11   6.8573157317188853        1.0082949046106253     
 after Cholesky dec. mat Q_11          12   10.388986234974864        1.0044814240173365     
 after Cholesky dec. mat Q_11          13   17.148945593474124        1.0019545000369010     
 after Cholesky dec. mat Q_11          14   36.396854815027226        1.0004882925635341     
 iquad            tau               W_11
           1   1.2407860221669755E-002  -2.0036890271969612E-003
           2   6.6247784504545146E-002  -1.8630267063788990E-003
           3  0.16685067920273572       -1.6787332326980333E-003
           4  0.32143354117706557       -1.4821717729801692E-003
           5  0.54226929704049154       -1.2716602060552692E-003
           6  0.84898810451115114       -1.0444546896146518E-003
           7   1.2717044573382585       -8.0706817611928472E-004
           8   1.8549568238246570       -5.7375077925969631E-004
           9   2.6628859082489575       -3.6428665611772131E-004
          10   3.7871891950919530       -1.9865157855542120E-004
          11   5.3615538564556724       -8.8120992738450937E-005
          12   7.5924962197314256       -2.9192107434068607E-005
          13   10.841811579929804       -6.1535866096300060E-006
          14   15.953141633918168       -5.5752436797208841E-007
 iquad            tau               vec_Sigma_c_gw_cos_omega              vec_Sigma_c_gw_sin_omega
           1   1.2407860221669755E-002  -2.0867107750334166E-002  -3.1777791129628460E-002
           2   6.6247784504545146E-002  -1.5117593109661622E-002  -2.5222390496124989E-002
           3  0.16685067920273572       -9.4285711593673372E-003  -1.8230010089688733E-002
           4  0.32143354117706557       -5.4013227210590970E-003  -1.2592909388487079E-002
           5  0.54226929704049154       -2.8114861527622024E-003  -8.2838837989699706E-003
           6  0.84898810451115114       -1.2688505905918660E-003  -5.0946753471408264E-003
           7   1.2717044573382585       -4.5096665103347595E-004  -2.8581892273944693E-003
           8   1.8549568238246570       -9.0915513470500174E-005  -1.4155670460865048E-003
           9   2.6628859082489575        1.7172790136056983E-005  -5.9554487038175489E-004
          10   3.7871891950919530        2.2221398377994482E-005  -2.0304918214858041E-004
          11   5.3615538564556724        8.7325691039389219E-006  -5.2182223321926093E-005
          12   7.5924962197314256        1.9411656907932616E-006  -8.9067723301246936E-006
          13   10.841811579929804        2.4164668698838760E-007  -7.9918396147263005E-007
          14   15.953141633918168        9.8178870112414997E-009  -2.1412144349370855E-008
 REORDERED LEVEL =           2
 jquad         omega                  Sigma 
 REORDERED LEVEL =           4
 jquad         omega                  Sigma 
 REORDERED LEVEL =           5
 jquad         omega                  Sigma 
 REORDERED LEVEL =           6
 jquad         omega                  Sigma 
 REORDERED LEVEL =           9
 jquad         omega                  Sigma 
           1   9.9999999999999998E-013 ( -1.8922512972341293E-002, -1.2148918692663175E-014)
 REORDERED LEVEL =          10
 jquad         omega                  Sigma 
 REORDERED LEVEL =          11
 jquad         omega                  Sigma 
           1   9.9999999999999998E-013 ( -1.6682209295192103E-002, -1.5499835999936372E-014)
 REORDERED LEVEL =           8
 jquad         omega                  Sigma 
           1   9.9999999999999998E-013 ( -1.8922512972344551E-002, -1.2148918692670838E-014)
           2   3.1415952374491045E-004 ( -1.8922512166176214E-002, -3.8166982880595972E-006)
 REORDERED LEVEL =           1
 jquad         omega                  Sigma 
           1  -9.9999999999999998E-013 ( -3.4018302903341090E-002,  8.7894669228128189E-014)
 REORDERED LEVEL =           3
 jquad         omega                  Sigma 
           1   9.9999999999999998E-013 ( -7.2088349030828419E-003, -1.1654090414830161E-014)
           2   3.1415952374491045E-004 ( -7.2088350021711021E-003, -3.6612431907314819E-006)
           1   9.9999999999999998E-013 ( -1.0822149798280658E-002, -2.1666380840060789E-014)
           2   3.1415952374491045E-004 ( -1.0822149825652737E-002, -6.8066992325322079E-006)
           3   6.2832059781124877E-004 ( -1.0822149907769271E-002, -1.3613428134136790E-005)
           4   9.4248477255115862E-004 ( -1.0822150044627237E-002, -2.0420216374360304E-005)
           1   9.9999999999999998E-013 ( -1.5320459259906048E-002, -2.7739178486233771E-014)
           2   3.1415952374491045E-004 ( -1.5320459409299068E-002, -8.7145263641331338E-006)
           3   6.2832059781124877E-004 ( -1.5320459857481039E-002, -1.7429091303798234E-005)
           4   9.4248477255115862E-004 ( -1.5320460604451870E-002, -2.6143733395151206E-005)
           5   1.2566535983779773E-003 ( -1.5320461650217788E-002, -3.4858491215579189E-005)
           6   1.5708286257967215E-003 ( -1.5320462994781462E-002, -4.3573403344328272E-005)
           1   9.9999999999999998E-013 ( -2.0203937247325165E-002, -2.1397178839822297E-014)
           2   3.1415952374491045E-004 ( -2.0203937010991536E-002, -6.7221271319533032E-006)
           3   6.2832059781124877E-004 ( -2.0203936301986230E-002, -1.3444285145288615E-005)
           4   9.4248477255115862E-004 ( -2.0203935120293195E-002, -2.0166504921931190E-005)
           5   1.2566535983779773E-003 ( -2.0203933465888217E-002, -2.6888817344885920E-005)
           6   1.5708286257967215E-003 ( -2.0203931338735413E-002, -3.3611253298777183E-005)
 REORDERED LEVEL =           7
 jquad         omega                  Sigma 
           1   9.9999999999999998E-013 ( -2.1406060732754494E-002, -1.7114673351726424E-014)
           2   3.1415952374491045E-004 ( -2.1406059677507024E-002, -5.3767371581503628E-006)
           3   6.2832059781124877E-004 ( -2.1406056511745746E-002, -1.0753498023050681E-005)
           4   9.4248477255115862E-004 ( -2.1406051235410374E-002, -1.6130306301837463E-005)
           5   1.2566535983779773E-003 ( -2.1406043848403541E-002, -2.1507185702413065E-005)
           6   1.5708286257967215E-003 ( -2.1406034350586200E-002, -2.6884159933831612E-005)
           7   1.8850114054349632E-003 ( -2.1406022741781400E-002, -3.2261252706686504E-005)
           1   9.9999999999999998E-013 ( -2.0203937247351193E-002, -2.1397178839862169E-014)
           2   3.1415952374491045E-004 ( -2.0203937011017577E-002, -6.7221271319658308E-006)
           3   6.2832059781124877E-004 ( -2.0203936302012268E-002, -1.3444285145313672E-005)
           4   9.4248477255115862E-004 ( -2.0203935120319223E-002, -2.0166504921968771E-005)
           5   1.2566535983779773E-003 ( -2.0203933465914255E-002, -2.6888817344936023E-005)
           6   1.5708286257967215E-003 ( -2.0203931338761447E-002, -3.3611253298839823E-005)
           7   1.8850114054349632E-003 ( -2.0203928738815838E-002, -4.0333843670471722E-005)
           8   2.1992034880733125E-003 ( -2.0203925666021964E-002, -4.7056619349320207E-005)
           2   3.1415952374491045E-004 ( -1.8922512166172967E-002, -3.8166982880571908E-006)
           3   6.2832059781124877E-004 ( -1.8922509747652885E-002, -7.6334140761571867E-006)
           4   9.4248477255115862E-004 ( -1.8922505716734636E-002, -1.1450164864650745E-005)
           5   1.2566535983779773E-003 ( -1.8922500073342174E-002, -1.5266968154501290E-005)
           6   1.5708286257967215E-003 ( -1.8922492817368054E-002, -1.9083841447590279E-005)
           7   1.8850114054349632E-003 ( -1.8922483948674601E-002, -2.2900802247028294E-005)
           8   2.1992034880733125E-003 ( -1.8922473467093290E-002, -2.6717868057456057E-005)
           9   2.5134064246759491E-003 ( -1.8922461372425158E-002, -3.0535056385355428E-005)
          10   2.8276217664213428E-003 ( -1.8922447664440255E-002, -3.4352384739353128E-005)
          11   3.1418510647329779E-003 ( -1.8922432342878378E-002, -3.8169870630530824E-005)
          12   3.4560958713099150E-003 ( -1.8922415407448327E-002, -4.1987531572728946E-005)
          13   3.7703577381573172E-003 ( -1.8922396857828448E-002, -4.5805385082854770E-005)
          14   4.0846382176174343E-003 ( -1.8922376693666358E-002, -4.9623448681192598E-005)
          15   4.3989388623999334E-003 ( -1.8922354914579019E-002, -5.3441739891703405E-005)
           1   9.9999999999999998E-013 ( -2.5162745878325531E-002, -2.1921372704394740E-014)
           2   3.1415952374491045E-004 ( -2.5162745602692830E-002, -6.8868076849839137E-006)
           3   6.2832059781124877E-004 ( -2.5162744775789860E-002, -1.3773647413130754E-005)
           4   9.4248477255115862E-004 ( -2.5162743397587020E-002, -2.0660551228142428E-005)
           5   1.2566535983779773E-003 ( -2.5162741468045369E-002, -2.7547551174777920E-005)
           6   1.5708286257967215E-003 ( -2.5162738987100513E-002, -3.4434679299405093E-005)
           7   1.8850114054349632E-003 ( -2.5162735954677252E-002, -4.1321967650526323E-005)
           8   2.1992034880733125E-003 ( -2.5162732370681430E-002, -4.8209448279293980E-005)
           9   2.5134064246759491E-003 ( -2.5162728235001562E-002, -5.5097153240078631E-005)
          10   2.8276217664213428E-003 ( -2.5162723547507111E-002, -6.1985114590968737E-005)
           2   3.1415952374491045E-004 ( -1.6682208944009715E-002, -4.8694207974963091E-006)
           3   6.2832059781124877E-004 ( -1.6682207890456428E-002, -9.7388638344903812E-006)
           4   9.4248477255115862E-004 ( -1.6682206134506446E-002, -1.4608351350853159E-005)
           5   1.2566535983779773E-003 ( -1.6682203676122227E-002, -1.9477905587189947E-005)
           6   1.5708286257967215E-003 ( -1.6682200515246069E-002, -2.4347548785218615E-005)
           7   1.8850114054349632E-003 ( -1.6682196651807688E-002, -2.9217303188137860E-005)
           8   2.1992034880733125E-003 ( -1.6682192085719881E-002, -3.4087191040985481E-005)
           9   2.5134064246759491E-003 ( -1.6682186816879694E-002, -3.8957234591026732E-005)
          10   2.8276217664213428E-003 ( -1.6682180845167170E-002, -4.3827456088107350E-005)
          11   3.1418510647329779E-003 ( -1.6682174170448056E-002, -4.8697877785044905E-005)
          12   3.4560958713099150E-003 ( -1.6682166792571330E-002, -5.3568521937965259E-005)
          13   3.7703577381573172E-003 ( -1.6682158711369750E-002, -5.8439410806704451E-005)
           3   6.2832059781124877E-004 ( -1.8922509747656139E-002, -7.6334140761619996E-006)
           4   9.4248477255115862E-004 ( -1.8922505716737887E-002, -1.1450164864657966E-005)
           5   1.2566535983779773E-003 ( -1.8922500073345429E-002, -1.5266968154510916E-005)
           6   1.5708286257967215E-003 ( -1.8922492817371305E-002, -1.9083841447602310E-005)
           7   1.8850114054349632E-003 ( -1.8922483948677859E-002, -2.2900802247042727E-005)
           8   2.1992034880733125E-003 ( -1.8922473467096548E-002, -2.6717868057472896E-005)
           9   2.5134064246759491E-003 ( -1.8922461372428402E-002, -3.0535056385374673E-005)
          10   2.8276217664213428E-003 ( -1.8922447664443506E-002, -3.4352384739374778E-005)
          11   3.1418510647329779E-003 ( -1.8922432342881636E-002, -3.8169870630554880E-005)
          12   3.4560958713099150E-003 ( -1.8922415407451581E-002, -4.1987531572755401E-005)
          13   3.7703577381573172E-003 ( -1.8922396857831696E-002, -4.5805385082883644E-005)
          14   4.0846382176174343E-003 ( -1.8922376693669606E-002, -4.9623448681223850E-005)
          15   4.3989388623999334E-003 ( -1.8922354914582270E-002, -5.3441739891737076E-005)
          16   4.7132612256129613E-003 ( -1.8922331520155405E-002, -5.7260276242377094E-005)
           2  -3.1415952374491045E-004 ( -3.4018305270680074E-002,  2.7612944760598248E-005)
           3  -6.2832059781124877E-004 ( -3.4018312372739043E-002,  5.5226009803047604E-005)
           4  -9.4248477255115862E-004 ( -3.4018324209609707E-002,  8.2839315411058922E-005)
           5  -1.2566535983779773E-003 ( -3.4018340781468384E-002,  1.1045298187200427E-004)
           6  -1.5708286257967215E-003 ( -3.4018362088539041E-002,  1.3806712947879798E-004)
           7  -1.8850114054349632E-003 ( -3.4018388131127855E-002,  1.6568187853173124E-004)
           8  -2.1992034880733125E-003 ( -3.4018418909603443E-002,  1.9329734934026780E-004)
           9  -2.5134064246759491E-003 ( -3.4018454424401108E-002,  2.2091366222496225E-004)
          10  -2.8276217664213428E-003 ( -3.4018494676018723E-002,  2.4853093751923115E-004)
          11  -3.1418510647329779E-003 ( -3.4018539665027783E-002,  2.7614929557130214E-004)
          12  -3.4560958713099150E-003 ( -3.4018589392062926E-002,  3.0376885674588663E-004)
          13  -3.7703577381573172E-003 ( -3.4018643857824112E-002,  3.3138974142618235E-004)
           3   6.2832059781124877E-004 ( -7.2088352994378281E-003, -7.3225026269971049E-006)
           4   9.4248477255115862E-004 ( -7.2088357948828377E-003, -1.0983794554587160E-005)
           5   1.2566535983779773E-003 ( -7.2088364885099510E-003, -1.4645135219794937E-005)
           6   1.5708286257967215E-003 ( -7.2088373803205069E-003, -1.8306540869677558E-005)
           7   1.8850114054349632E-003 ( -7.2088384703194062E-003, -2.1968027752306990E-005)
           8   2.1992034880733125E-003 ( -7.2088397585116579E-003, -2.5629612117016018E-005)
           9   2.5134064246759491E-003 ( -7.2088412449031174E-003, -2.9291310214665443E-005)
          10   2.8276217664213428E-003 ( -7.2088429294997741E-003, -3.2953138297884552E-005)
          11   3.1418510647329779E-003 ( -7.2088448123096569E-003, -3.6615112621343309E-005)
          12   3.4560958713099150E-003 ( -7.2088468933410293E-003, -4.0277249441976095E-005)
          13   3.7703577381573172E-003 ( -7.2088491726027349E-003, -4.3939565019263941E-005)
          14   4.0846382176174343E-003 ( -7.2088516501054136E-003, -4.7602075615477451E-005)
          15   4.3989388623999334E-003 ( -7.2088543258607167E-003, -5.1264797495932813E-005)
          16   4.7132612256129613E-003 ( -7.2088571998795330E-003, -5.4927746929228101E-005)
          17   5.0276068607934994E-003 ( -7.2088602721751905E-003, -5.8590940187534698E-005)
          18   5.3419773219384233E-003 ( -7.2088635427612329E-003, -6.2254393546819309E-005)
          19   5.6563741635350740E-003 ( -7.2088670116527611E-003, -6.5918123287107413E-005)
          20   5.9707989405921695E-003 ( -7.2088706788647041E-003, -6.9582145692741751E-005)
          21   6.2852532086702505E-003 ( -7.2088745444137516E-003, -7.3246477052636756E-005)
          22   6.5997385239130379E-003 ( -7.2088786083169768E-003, -7.6911133660531993E-005)
          23   6.9142564430779594E-003 ( -7.2088828705927982E-003, -8.0576131815231726E-005)
          24   7.2288085235669474E-003 ( -7.2088873312602794E-003, -8.4241487820900057E-005)
          25   7.5433963234575897E-003 ( -7.2088919903393186E-003, -8.7907217987264413E-005)
          26   7.8580214015339413E-003 ( -7.2088968478505227E-003, -9.1573338629918484E-005)
          27   8.1726853173173745E-003 ( -7.2089019038164906E-003, -9.5239866070532538E-005)
          28   8.4873896310976738E-003 ( -7.2089071582587391E-003, -9.8906816637146352E-005)
          29   8.8021359039641353E-003 ( -7.2089126112013192E-003, -1.0257420666441464E-004)
          30   9.1169256978364949E-003 ( -7.2089182626685899E-003, -1.0624205249386101E-004)
          31   9.4317605754960978E-003 ( -7.2089241126862937E-003, -1.0991037047411846E-004)
          32   9.7466421006169035E-003 ( -7.2089301612807350E-003, -1.1357917696120016E-004)
          14  -4.0846382176174343E-003 ( -3.4018703063083335E-002,  3.5901207001566240E-004)
          15  -4.3989388623999334E-003 ( -3.4018767008680485E-002,  3.8663596293992455E-004)
          16  -4.7132612256129613E-003 ( -3.4018835695513124E-002,  4.1426154064844395E-004)
          17  -5.0276068607934994E-003 ( -3.4018909124554499E-002,  4.4188892361662489E-004)
          18  -5.3419773219384233E-003 ( -3.4018987296841399E-002,  4.6951823234747160E-004)
          19  -5.6563741635350740E-003 ( -3.4019070213481488E-002,  4.9714958737348167E-004)
          20  -5.9707989405921695E-003 ( -3.4019157875643524E-002,  5.2478310925852564E-004)
          21  -6.2852532086702505E-003 ( -3.4019250284568564E-002,  5.5241891859968248E-004)
          22  -6.5997385239130379E-003 ( -3.4019347441561938E-002,  5.8005713602909883E-004)
          23  -6.9142564430779594E-003 ( -3.4019449347998991E-002,  6.0769788221574559E-004)
          24  -7.2288085235669474E-003 ( -3.4019556005320986E-002,  6.3534127786749669E-004)
          25  -7.5433963234575897E-003 ( -3.4019667415036231E-002,  6.6298744373269357E-004)
          26  -7.8580214015339413E-003 ( -3.4019783578719529E-002,  6.9063650060227275E-004)
          27  -8.1726853173173745E-003 ( -3.4019904498019442E-002,  7.1828856931135401E-004)
          28  -8.4873896310976738E-003 ( -3.4020030174640781E-002,  7.4594377074132200E-004)
           5   1.2566535983779773E-003 ( -1.0822150236224607E-002, -2.7227093623688235E-005)
           6   1.5708286257967215E-003 ( -1.0822150482555732E-002, -3.4034089554018342E-005)
           7   1.8850114054349632E-003 ( -1.0822150783615446E-002, -4.0841233839135308E-005)
           8   2.1992034880733125E-003 ( -1.0822151139396687E-002, -4.7648556155172502E-005)
           9   2.5134064246759491E-003 ( -1.0822151549891241E-002, -5.4456086181092700E-005)
          10   2.8276217664213428E-003 ( -1.0822152015088972E-002, -6.1263853599151187E-005)
          11   3.1418510647329779E-003 ( -1.0822152534979340E-002, -6.8071888095378507E-005)
          12   3.4560958713099150E-003 ( -1.0822153109550011E-002, -7.4880219360034479E-005)
          13   3.7703577381573172E-003 ( -1.0822153738787234E-002, -8.1688877088093351E-005)
          14   4.0846382176174343E-003 ( -1.0822154422676500E-002, -8.8497890979714910E-005)
          15   4.3989388623999334E-003 ( -1.0822155161202109E-002, -9.5307290740708866E-005)
          16   4.7132612256129613E-003 ( -1.0822155954345903E-002, -1.0211710608300540E-004)
          17   5.0276068607934994E-003 ( -1.0822156802089616E-002, -1.0892736672514181E-004)
          18   5.3419773219384233E-003 ( -1.0822157704413105E-002, -1.1573810239271992E-004)
          19   5.6563741635350740E-003 ( -1.0822158661295531E-002, -1.2254934281888329E-004)
          20   5.9707989405921695E-003 ( -1.0822159672713850E-002, -1.2936111774479388E-004)
          21   6.2852532086702505E-003 ( -1.0822160738644379E-002, -1.3617345692009872E-004)
          22   6.5997385239130379E-003 ( -1.0822161859061940E-002, -1.4298639010340846E-004)
          23   6.9142564430779594E-003 ( -1.0822163033940145E-002, -1.4979994706276178E-004)
          24   7.2288085235669474E-003 ( -1.0822164263251255E-002, -1.5661415757611938E-004)
          25   7.5433963234575897E-003 ( -1.0822165546966075E-002, -1.6342905143180739E-004)
          26   7.8580214015339413E-003 ( -1.0822166885054245E-002, -1.7024465842902672E-004)
          27   8.1726853173173745E-003 ( -1.0822168277484452E-002, -1.7706100837829023E-004)
          28   8.4873896310976738E-003 ( -1.0822169724223049E-002, -1.8387813110192839E-004)
          29   8.8021359039641353E-003 ( -1.0822171225235990E-002, -1.9069605643455412E-004)
          30   9.1169256978364949E-003 ( -1.0822172780487742E-002, -1.9751481422354485E-004)
          31   9.4317605754960978E-003 ( -1.0822174389941455E-002, -2.0433443432949462E-004)
          32   9.7466421006169035E-003 ( -1.0822176053559002E-002, -2.1115494662671239E-004)
          33   1.0061571837796730E-002 ( -1.0822177771300120E-002, -2.1797638100371313E-004)
          34   1.0376551352588590E-002 ( -1.0822179543124392E-002, -2.2479876736364841E-004)
          35   1.0691582211531624E-002 ( -1.0822181368989417E-002, -2.3162213562483204E-004)
           7   1.8850114054349632E-003 ( -1.5320464638150963E-002, -5.2288508363123297E-005)
           8   2.1992034880733125E-003 ( -1.5320466580334622E-002, -6.1003844856771231E-005)
           9   2.5134064246759491E-003 ( -1.5320468821342385E-002, -6.9719451413801644E-005)
          10   2.8276217664213428E-003 ( -1.5320471361184394E-002, -7.8435366627066817E-005)
          11   3.1418510647329779E-003 ( -1.5320474199874163E-002, -8.7151629094385857E-005)
          12   3.4560958713099150E-003 ( -1.5320477337425675E-002, -9.5868277419125213E-005)
          13   3.7703577381573172E-003 ( -1.5320480773854016E-002, -1.0458535021085268E-004)
          14   4.0846382176174343E-003 ( -1.5320484509176988E-002, -1.1330288608594849E-004)
          15   4.3989388623999334E-003 ( -1.5320488543414178E-002, -1.2202092366821999E-004)
          16   4.7132612256129613E-003 ( -1.5320492876584081E-002, -1.3073950158950487E-004)
          17   5.0276068607934994E-003 ( -1.5320497508709122E-002, -1.3945865849033728E-004)
          18   5.3419773219384233E-003 ( -1.5320502439812237E-002, -1.4817843302052639E-004)
          19   5.6563741635350740E-003 ( -1.5320507669918873E-002, -1.5689886383979086E-004)
[...]
         864  0.91498083436642097      ( -1.8176427921008317E-002, -1.3646557083297633E-002)
 coeff_pade = ( -3.4018302903341090E-002,  8.7894669228128189E-014) ( -2.5472626636025431     ,-0.28894547340261167     ) (  2.7958392452840615     , 0.43064484486969734     ) ( 0.35215066883535057     ,  1.9202182271865428E-002) (-0.58656677182856976     ,-0.18215425093643559     ) ( -3.5949052269458126     , 0.45919390678320743     ) ( 0.57855410289342524     ,  1.2245098098499045     ) ( -6.3840136593429353E-002,-0.43541427263757337     )
 sigma_c_pade = (-0.38016764952583049     ,  3.7012237788118091E-005)
 z_value(n_level_gw) =  0.89833106546633212     
 m_value(n_level_gw) = -0.11317535198550711     
 level_energ_GW = -0.58570583082181682     
 
 
 n_level_gw =           1
         866  0.92896067253373171      ( -1.8119508197293060E-002, -1.3740590919864997E-002)
         867  0.93610469503082927      ( -1.8090250410848968E-002, -1.3787616157892143E-002)
         868  0.94335454350018144      ( -1.8060444689243685E-002, -1.3834637167957143E-002)
         869  0.95071262350450036      ( -1.8030078670041392E-002, -1.3881646282972348E-002)
         870  0.95818141405543900      ( -1.7999139682887452E-002, -1.3928635556576889E-002)
         865  0.92192014119478394      ( -1.8148230110845379E-002, -1.3693568850318092E-002)
         866  0.92896067253373171      ( -1.8119508197324798E-002, -1.3740590919884853E-002)
         867  0.93610469503082927      ( -1.8090250410880752E-002, -1.3787616157912063E-002)
         868  0.94335454350018144      ( -1.8060444689275517E-002, -1.3834637167977129E-002)
         869  0.95071262350450036      ( -1.8030078670073273E-002, -1.3881646282992403E-002)
 AFTER get_sigma_c_newton_pade
 vec_gw_energ(n_level_gw) =  0.42714442449514789     
 Eigenval_scf(n_level_gw_ref) =  -10.379418276495134     
 nparam_pade =           8
 level_energ_GW = -0.58570583082181682     
 
         870  0.95818141405543900      ( -1.7999139682919392E-002, -1.3928635556597005E-002)
         871  0.96576347043855215      ( -1.7967614741620529E-002, -1.3975596754256381E-002)
         871  0.96576347043855215      ( -1.7967614741588537E-002, -1.3975596754236194E-002)
         872  0.97346142716965245      ( -1.7935490535987895E-002, -1.4022521344035718E-002)
         873  0.98127800108974561      ( -1.7902753423630399E-002, -1.4069400487156084E-002)
         872  0.97346142716965245      ( -1.7935490536019949E-002, -1.4022521344055969E-002)
         873  0.98127800108974561      ( -1.7902753423662519E-002, -1.4069400487176403E-002)
         874  0.98921599460618381      ( -1.7869389421243543E-002, -1.4116225028033443E-002)
         875  0.99727829908815668      ( -1.7835384195835881E-002, -1.4162985484068091E-002)
         874  0.98921599460618381      ( -1.7869389421211364E-002, -1.4116225028013055E-002)
         875  0.99727829908815668      ( -1.7835384195803636E-002, -1.4162985484047626E-002)
 
 
 n_level_gw =           6
 AFTER evaluate_pade_function/get_z_and_m_value_pade
 energy_val =  0.50661572923459475     
 nparam_pade =           8
 n_level_gw =           5
 AFTER evaluate_pade_function/get_z_and_m_value_pade
 energy_val =  0.50661572923431841     
 nparam_pade =           8
 omega_points_pade = (  0.0000000000000000     ,  9.9999999999999998E-013) (  0.0000000000000000     ,  3.9782473475931619E-002) (  0.0000000000000000     ,  8.2842712474619024E-002) (  0.0000000000000000     , 0.13363572758385980     ) (  0.0000000000000000     , 0.20000000000000004     ) (  0.0000000000000000     , 0.29932115253309782     ) (  0.0000000000000000     , 0.48284271247461907     ) (  0.0000000000000000     , 0.99727829908815668     )
 omega_points_pade = (  0.0000000000000000     ,  9.9999999999999998E-013) (  0.0000000000000000     ,  3.9782473475931619E-002) (  0.0000000000000000     ,  8.2842712474619024E-002) (  0.0000000000000000     , 0.13363572758385980     ) (  0.0000000000000000     , 0.20000000000000004     ) (  0.0000000000000000     , 0.29932115253309782     ) (  0.0000000000000000     , 0.48284271247461907     ) (  0.0000000000000000     , 0.99727829908815668     )
 coeff_pade = ( -2.0203937247325165E-002, -2.1397178839822297E-014) ( -1.0566197369733974     ,  3.9759931537597049E-002) ( 0.93936248181728910     ,-0.10470797383663979     ) ( 0.60962833397351290     ,  4.9055624324182909E-003) (-0.43521098040197548     ,  5.5094525209728983E-003) ( -1.6894082579458218     ,  1.8847234850817338E-002) (-0.56724403795511902     , -1.5176207186480943     ) (-0.74872641387103833     ,-0.21985905938283046     )
 coeff_pade = ( -2.0203937247351193E-002, -2.1397178839862169E-014) ( -1.0566197369739254     ,  3.9759931537379500E-002) ( 0.93936248181475646     ,-0.10470797384201150     ) ( 0.60962833396670235     ,  4.9055624887102533E-003) (-0.43521098003920883     ,  5.5094521463888799E-003) ( -1.6894082548721310     ,  1.8847235694564458E-002) (-0.56724403872270135     , -1.5176207182355421     ) (-0.74872641453801625     ,-0.21985906057784793     )
 sigma_c_pade = (-0.91018058249739731     , -2.2047677764832356E-003)
 z_value(n_level_gw) =  0.96553847811938254     
 m_value(n_level_gw) =  -3.5691505477585553E-002
 sigma_c_pade = (-0.91018058248763467     , -2.2047677794820538E-003)
 z_value(n_level_gw) =  0.96553847812155957     
 m_value(n_level_gw) =  -3.5691505475250310E-002
 level_energ_GW =  0.47244637509178045     
 
 level_energ_GW =  0.47244637509178061     
 
 
 n_level_gw =           6
 AFTER get_sigma_c_newton_pade
 vec_gw_energ(n_level_gw) =  -1.0682602431424515     
 
 n_level_gw =           5
 AFTER get_sigma_c_newton_pade
 vec_gw_energ(n_level_gw) =  -1.0682602431178896     
 Eigenval_scf(n_level_gw_ref) =   9.0000531133259667     
 nparam_pade =           8
 Eigenval_scf(n_level_gw_ref) =   9.0000531133334878     
 nparam_pade =           8
 level_energ_GW =  0.47244637509178061     
 
 level_energ_GW =  0.47244637509178045     
 
  
  GW quasiparticle energies
  -------------------------
   
  The GW quasiparticle energies are calculated according to: 
  E_GW = E_SCF + Z * ( Sigc(E_SCF) + Sigx - vxc )
   
  The energy unit of the following table is eV.  Sigc_fit is a very conservative
  estimate of the statistical error of the fitting.
   
            MO      E_SCF       Sigc   Sigc_fit   Sigx-vxc          Z       E_GW
     1 ( occ )    -10.380      0.427      0.000     -5.807      1.000    -15.760
     2 ( vir )      0.808     -0.487      0.000      3.177      1.000      3.498
     3 ( vir )      2.789     -0.316      0.000      2.494      1.000      4.966
     4 ( vir )      7.900     -0.973      0.000      3.955      1.000     10.882
     5 ( vir )      9.000     -1.068      0.000      4.904      1.000     12.835
     6 ( vir )      9.000     -1.068      0.000      4.904      1.000     12.835
     7 ( vir )     17.151     -2.042      0.000      4.657      1.000     19.767
     8 ( vir )     17.645     -1.772      0.000      4.558      1.000     20.431
     9 ( vir )     17.645     -1.772      0.000      4.558      1.000     20.431
    10 ( vir )     22.938     -2.210      0.000      5.392      1.000     26.119
    11 ( vir )     23.237     -2.114      0.000      4.380      1.000     25.502
   
  GW HOMO-LUMO gap (eV)                                                    19.26
  

  Total RI-RPA Time=                                                   78.242651
  RI-RPA energy  =                                             -0.07882413417709

  Total EXX Time=                                                       1.878176
  EXX energy  =                                                -0.65670549919430

 ENERGY| Total FORCE_EVAL ( QS ) energy (a.u.):               -1.211531911513720


 -------------------------------------------------------------------------------
 -                                                                             -
 -                                DBCSR STATISTICS                             -
 -                                                                             -
 -------------------------------------------------------------------------------
 COUNTER                                    TOTAL       BLAS       SMM       ACC
 flops    30 x     1 x    30                 7200     100.0%      0.0%      0.0%
 flops    30 x    30 x    30               216000     100.0%      0.0%      0.0%
 flops    60 x    60 x    30               432000     100.0%      0.0%      0.0%
 flops    91 x    91 x    91            168799904     100.0%      0.0%      0.0%
 flops   182 x    60 x    30            403603200     100.0%      0.0%      0.0%
 flops   182 x    60 x    91            612131520     100.0%      0.0%      0.0%
 flops    30 x   210 x    30            861840000     100.0%      0.0%      0.0%
 flops    30 x   240 x    30           1378944000     100.0%      0.0%      0.0%
 flops    91 x    91 x   150           3338899200     100.0%      0.0%      0.0%
 flops inhomo. stacks                       10800     100.0%      0.0%      0.0%
 flops total                         6.764884E+09     100.0%      0.0%      0.0%
 flops max/rank                      1.422817E+09     100.0%      0.0%      0.0%
 matmuls inhomo. stacks                         6     100.0%      0.0%      0.0%
 matmuls total                               7868     100.0%      0.0%      0.0%
 number of processed stacks                  1992     100.0%      0.0%      0.0%
 average stack size                                     3.9       0.0       0.0
 marketing flops                     6.803697E+09
 -------------------------------------------------------------------------------
 # multiplications                            524
 max memory usage/rank             411.566080E+06
 # max total images/rank                        3
 # max 3D layers                                1
 # MPI messages exchanged                  219336
 MPI messages size (bytes):
  total size                       435.799584E+06
  min size                           0.000000E+00
  max size                         132.496000E+03
  average size                       1.986904E+03
 MPI breakdown and total messages size (bytes):
             size <=      128              211656                        0
       128 < size <=     8192                  28                    52320
      8192 < size <=    32768                1884                 27129600
     32768 < size <=   131072                4004                174894720
    131072 < size <=  4194304                1764                233722944
   4194304 < size <= 16777216                   0                        0
  16777216 < size                               0                        0
 -------------------------------------------------------------------------------

 *** WARNING in dbcsr_mm.F:278 :: Using a non-square number of MPI ranks ***
 *** might lead to poor performance. Used ranks: 24 Suggested: 25 49     ***

 -------------------------------------------------------------------------------
 -                                                                             -
 -                      DBCSR MESSAGE PASSING PERFORMANCE                      -
 -                                                                             -
 -------------------------------------------------------------------------------

 ROUTINE             CALLS      AVE VOLUME [Bytes]
 MP_Group               26
 MP_Bcast               10                     12.
 MP_Allreduce         2949                      8.
 MP_Alltoall          1840                  16898.
 MP_Wait             27968
 MP_ISend            20374                   4853.
 MP_IRecv            20374                     62.
 MP_Memory           37478
 -------------------------------------------------------------------------------


 MEMORY| Estimated peak process memory [MiB]                                 393

 -------------------------------------------------------------------------------
 ----                             MULTIGRID INFO                            ----
 -------------------------------------------------------------------------------
 count for grid        1:          10380          cutoff [a.u.]          200.00
 count for grid        2:           6597          cutoff [a.u.]           66.67
 count for grid        3:           2154          cutoff [a.u.]           22.22
 count for grid        4:            681          cutoff [a.u.]            7.41
 total gridlevel count  :          19812

 -------------------------------------------------------------------------------
 -                                                                             -
 -                         MESSAGE PASSING PERFORMANCE                         -
 -                                                                             -
 -------------------------------------------------------------------------------

 ROUTINE             CALLS      AVE VOLUME [Bytes]
 MP_Group                5
 MP_Bcast              109                2489677.
 MP_Allreduce          341                   8593.
 MP_Sync                72
 MP_Alltoall           123                3770426.
 MP_ISendRecv          276                  53776.
 MP_Wait               940
 MP_comm_split          10
 MP_ISend             3188                  55607.
 MP_IRecv             2546                  96740.
 -------------------------------------------------------------------------------


 -------------------------------------------------------------------------------
 -                                                                             -
 -                           R E F E R E N C E S                               -
 -                                                                             -
 -------------------------------------------------------------------------------
 
 CP2K version 7.0 (Development Version), the CP2K developers group (2018).
 CP2K is freely available from https://www.cp2k.org/ .

 Schuett, Ole; Messmer, Peter; Hutter, Juerg; VandeVondele, Joost. 
 Electronic Structure Calculations on Graphics Processing Units, John Wiley & Sons, Ltd, 173-190 (2016). 
 GPU-Accelerated Sparse Matrix-Matrix Multiplication for Linear Scaling Density Functional Theory.
 https://dx.doi.org/10.1002/9781118670712.ch8


 Del Ben, M; Schuett, O; Wentz, T; Messmer, P; Hutter, J;
 VandeVondele, J. 
 COMPUTER PHYSICS COMMUNICATIONS, 187, 120-129 (2015). 
 Enabling simulation at the fifth rung of DFT: Large scale RPA
 calculations with excellent time to solution.
 https://dx.doi.org/10.1016/j.cpc.2014.10.021


 Borstnik, U; VandeVondele, J; Weber, V; Hutter, J. 
 PARALLEL COMPUTING, 40 (5-6), 47-58 (2014). 
 Sparse matrix multiplication: The distributed block-compressed sparse
 row library.
 https://dx.doi.org/10.1016/j.parco.2014.03.012


 Hutter, J; Iannuzzi, M; Schiffmann, F; VandeVondele, J. 
 WILEY INTERDISCIPLINARY REVIEWS-COMPUTATIONAL MOLECULAR SCIENCE, 4 (1), 15-25 (2014). 
 CP2K: atomistic simulations of condensed matter systems.
 https://dx.doi.org/10.1002/wcms.1159


 Del Ben, M; Hutter, J; VandeVondele, J. 
 JOURNAL OF CHEMICAL THEORY AND COMPUTATION, 9 (6), 2654-2671 (2013). 
 Electron Correlation in the Condensed Phase from a Resolution of
 Identity Approach Based on the Gaussian and Plane Waves Scheme.
 https://dx.doi.org/10.1021/ct4002202


 Del Ben, M; Hutter, J; VandeVondele, J. 
 JOURNAL OF CHEMICAL THEORY AND COMPUTATION, 8 (11), 4177-4188 (2012). 
 Second-Order Moller-Plesset Perturbation Theory in the Condensed Phase:
 An Efficient and Massively Parallel Gaussian and Plane Waves Approach.
 https://dx.doi.org/10.1021/ct300531w


 Guidon, M; Hutter, J; VandeVondele, J. 
 JOURNAL OF CHEMICAL THEORY AND COMPUTATION, 5 (11), 3010-3021 (2009). 
 Robust Periodic Hartree-Fock Exchange for Large-Scale Simulations Using
 Gaussian Basis Sets.
 https://dx.doi.org/10.1021/ct900494g


 Guidon, M; Schiffmann, F; Hutter, J; VandeVondele, J. 
 JOURNAL OF CHEMICAL PHYSICS, 128 (21), 214104 (2008). 
 Ab initio molecular dynamics using hybrid density functionals.
 https://dx.doi.org/10.1063/1.2931945


 Frigo, M; Johnson, SG. 
 PROCEEDINGS OF THE IEEE, 93 (2), 216-231 (2005). 
 The design and implementation of FFTW3.
 https://dx.doi.org/10.1109/JPROC.2004.840301


 Lippert, G; Hutter, J; Parrinello, M. 
 THEORETICAL CHEMISTRY ACCOUNTS, 103 (2), 124-140 (1999). 
 The Gaussian and augmented-plane-wave density functional method for ab
 initio molecular dynamics simulations.
 https://dx.doi.org/10.1007/s002140050523


 Krack, M; Parrinello, M. 
 PHYSICAL CHEMISTRY CHEMICAL PHYSICS, 2 (10), 2105-2112 (2000). 
 All-electron ab-initio molecular dynamics.
 https://dx.doi.org/10.1039/b001167n


 Martyna, GJ; Tuckerman, ME. 
 JOURNAL OF CHEMICAL PHYSICS, 110 (6), 2810-2821 (1999). 
 A reciprocal space based method for treating long range interactions in
 ab initio and force-field-based calculations in clusters.
 https://dx.doi.org/10.1063/1.477923


 Perdew, JP; Burke, K; Ernzerhof, M. 
 PHYSICAL REVIEW LETTERS, 77 (18), 3865-3868 (1996). 
 Generalized gradient approximation made simple.
 https://dx.doi.org/10.1103/PhysRevLett.77.3865


 -------------------------------------------------------------------------------
 -                                                                             -
 -                                T I M I N G                                  -
 -                                                                             -
 -------------------------------------------------------------------------------
 SUBROUTINE                       CALLS  ASD         SELF TIME        TOTAL TIME
                                MAXIMUM       AVERAGE  MAXIMUM  AVERAGE  MAXIMUM
 CP2K                                 1  1.0    0.020    0.022   85.170   85.171
 qs_energies                          1  2.0    0.000    0.000   84.047   84.047
 mp2_main                             1  3.0    0.000    0.000   80.126   80.127
 mp2_gpw_main                         1  4.0    0.000    0.000   78.242   78.243
 rpa_ri_compute_en                    1  5.0    0.000    0.000   78.050   78.050
 rpa_num_int                          1  6.0    0.001    0.002   78.049   78.049
 get_l_sq_wghts_sin_tf_t_to_w         2  7.0   37.898   38.707   38.708   38.709
 get_l_sq_wghts_cos_tf_t_to_w         2  7.0   35.501   36.365   36.370   36.377
 mp_sum_dm                           20  7.7    1.903   10.953    1.903   10.953
 qs_ks_build_kohn_sham_matrix         2  6.0    0.001    0.001    3.466    3.467
 scf_env_do_scf                       1  3.0    0.000    0.000    3.010    3.010
 scf_env_do_scf_inner_loop            1  4.0    0.000    0.000    3.010    3.010
 pw_transfer                         39  8.7    0.004    0.005    2.588    2.652
 fft_wrap_pw1pw2                     31 10.0    0.001    0.001    2.526    2.608
 qs_ks_update_qs_env                  1  5.0    0.000    0.000    2.540    2.541
 rebuild_ks_matrix                    1  6.0    0.000    0.000    2.540    2.540
 fft3d_ps                            31 12.0    0.956    1.041    1.829    2.135
 fft_wrap_pw1pw2_200                 18 10.9    0.169    0.203    2.008    2.066
 compute_vec_Sigma_x_minus_vxc_       1  4.0    0.000    0.000    1.878    1.878
 -------------------------------------------------------------------------------

 The number of warnings for this run is : 1
 
 -------------------------------------------------------------------------------
  **** **** ******  **  PROGRAM ENDED AT                 2019-06-08 08:46:58.163
 ***** ** ***  *** **   PROGRAM RAN ON                                    tcopt4
 **    ****   ******    PROGRAM RAN BY                                   wilhelm
 ***** **    ** ** **   PROGRAM PROCESS ID                                136698
  **** **  *******  **  PROGRAM STOPPED IN /data/wilhelm/2_job_test/11_GW100/3_c
                                           alcs/06_H2
