 DBCSR| CPU Multiplication driver                                           BLAS
 DBCSR| Multrec recursion limit                                              512
 DBCSR| Multiplication stack size                                           1000
 DBCSR| Maximum elements for images                                    UNLIMITED
 DBCSR| Multiplicative factor virtual images                                   1
 DBCSR| Use multiplication densification                                       T
 DBCSR| Multiplication size stacks                                             3
 DBCSR| Number of 3D layers                                               SINGLE
 DBCSR| Use MPI memory allocation                                              T
 DBCSR| Use RMA algorithm                                                      F
 DBCSR| Use Communication thread                                               T
 DBCSR| Communication thread load                                             87


  **** **** ******  **  PROGRAM STARTED AT               2019-05-30 21:55:24.966
 ***** ** ***  *** **   PROGRAM STARTED ON                                tcopt4
 **    ****   ******    PROGRAM STARTED BY                               wilhelm
 ***** **    ** ** **   PROGRAM PROCESS ID                                  8284
  **** **  *******  **  PROGRAM STARTED IN /data/wilhelm/2_job_test/11_GW100/3_c
                                           alcs/13_N2

 CP2K| version string:                    CP2K version 7.0 (Development Version)
 CP2K| source code revision number:                                  git:026fb12
 CP2K| cp2kflags: libint fftw3 libxc pexsi elpa=201705 parallel mpi3 scalapack q
 CP2K|            uip libderiv_max_am1=5 libint_max_am=6
 CP2K| is freely available from                            https://www.cp2k.org/
 CP2K| Program compiled at                         Sat May 11 13:15:02 CEST 2019
 CP2K| Program compiled on                                                tcopt4
 CP2K| Program compiled for                            local_valgrind_March_2019
 CP2K| Data directory path              /data/wilhelm/1_git_repository/cp2k/data
 CP2K| Input file name                                                    GW.inp

 GLOBAL| Force Environment number                                              1
 GLOBAL| Basis set file name                              BASIS_def2_QZVP_RI_ALL
 GLOBAL| Potential file name                                           POTENTIAL
 GLOBAL| MM Potential file name                                     MM_POTENTIAL
 GLOBAL| Coordinate file name                                          13_N2.xyz
 GLOBAL| Method name                                                        CP2K
 GLOBAL| Project name                                                   ALL_ELEC
 GLOBAL| Preferred FFT library                                             FFTW3
 GLOBAL| Preferred diagonalization lib.                                       SL
 GLOBAL| Run type                                                         ENERGY
 GLOBAL| All-to-all communication in single precision                          F
 GLOBAL| FFTs using library dependent lengths                                  F
 GLOBAL| Global print level                                               MEDIUM
 GLOBAL| MPI I/O enabled                                                       T
 GLOBAL| Total number of message passing processes                            24
 GLOBAL| Number of threads for this process                                    1
 GLOBAL| This output is from process                                           0
 GLOBAL| CPU model name :  Intel(R) Xeon(R) CPU E5-2697 v3 @ 2.60GHz

 MEMORY| system memory details [Kb]
 MEMORY|                        rank 0           min           max       average
 MEMORY| MemTotal            396954008     396954008     396954008     396954008
 MEMORY| MemFree             247128772     247128772     247128772     247128772
 MEMORY| Buffers                200328        200328        200328        200328
 MEMORY| Cached               12503492      12503492      12503492      12503492
 MEMORY| Slab                   507144        507144        507144        507144
 MEMORY| SReclaimable           366432        366432        366432        366432
 MEMORY| MemLikelyFree       260199024     260199024     260199024     260199024


 *** Fundamental physical constants (SI units) ***

 *** Literature: B. J. Mohr and B. N. Taylor,
 ***             CODATA recommended values of the fundamental physical
 ***             constants: 2006, Web Version 5.1
 ***             http://physics.nist.gov/constants

 Speed of light in vacuum [m/s]                             2.99792458000000E+08
 Magnetic constant or permeability of vacuum [N/A**2]       1.25663706143592E-06
 Electric constant or permittivity of vacuum [F/m]          8.85418781762039E-12
 Planck constant (h) [J*s]                                  6.62606896000000E-34
 Planck constant (h-bar) [J*s]                              1.05457162825177E-34
 Elementary charge [C]                                      1.60217648700000E-19
 Electron mass [kg]                                         9.10938215000000E-31
 Electron g factor [ ]                                     -2.00231930436220E+00
 Proton mass [kg]                                           1.67262163700000E-27
 Fine-structure constant                                    7.29735253760000E-03
 Rydberg constant [1/m]                                     1.09737315685270E+07
 Avogadro constant [1/mol]                                  6.02214179000000E+23
 Boltzmann constant [J/K]                                   1.38065040000000E-23
 Atomic mass unit [kg]                                      1.66053878200000E-27
 Bohr radius [m]                                            5.29177208590000E-11

 *** Conversion factors ***

 [u] -> [a.u.]                                              1.82288848426455E+03
 [Angstrom] -> [Bohr] = [a.u.]                              1.88972613288564E+00
 [a.u.] = [Bohr] -> [Angstrom]                              5.29177208590000E-01
 [a.u.] -> [s]                                              2.41888432650478E-17
 [a.u.] -> [fs]                                             2.41888432650478E-02
 [a.u.] -> [J]                                              4.35974393937059E-18
 [a.u.] -> [N]                                              8.23872205491840E-08
 [a.u.] -> [K]                                              3.15774647902944E+05
 [a.u.] -> [kJ/mol]                                         2.62549961709828E+03
 [a.u.] -> [kcal/mol]                                       6.27509468713739E+02
 [a.u.] -> [Pa]                                             2.94210107994716E+13
 [a.u.] -> [bar]                                            2.94210107994716E+08
 [a.u.] -> [atm]                                            2.90362800883016E+08
 [a.u.] -> [eV]                                             2.72113838565563E+01
 [a.u.] -> [Hz]                                             6.57968392072181E+15
 [a.u.] -> [1/cm] (wave numbers)                            2.19474631370540E+05
 [a.u./Bohr**2] -> [1/cm]                                   5.14048714338585E+03
 

 CELL_TOP| Volume [angstrom^3]:                                         4096.000
 CELL_TOP| Vector a [angstrom    16.000     0.000     0.000    |a| =      16.000
 CELL_TOP| Vector b [angstrom     0.000    16.000     0.000    |b| =      16.000
 CELL_TOP| Vector c [angstrom     0.000     0.000    16.000    |c| =      16.000
 CELL_TOP| Angle (b,c), alpha [degree]:                                   90.000
 CELL_TOP| Angle (a,c), beta  [degree]:                                   90.000
 CELL_TOP| Angle (a,b), gamma [degree]:                                   90.000
 CELL_TOP| Numerically orthorhombic:                                         YES

 GENERATE|  Preliminary Number of Bonds generated:                             0
 GENERATE|  Achieved consistency in connectivity generation.

 CELL| Volume [angstrom^3]:                                             4096.000
 CELL| Vector a [angstrom]:      16.000     0.000     0.000    |a| =      16.000
 CELL| Vector b [angstrom]:       0.000    16.000     0.000    |b| =      16.000
 CELL| Vector c [angstrom]:       0.000     0.000    16.000    |c| =      16.000
 CELL| Angle (b,c), alpha [degree]:                                       90.000
 CELL| Angle (a,c), beta  [degree]:                                       90.000
 CELL| Angle (a,b), gamma [degree]:                                       90.000
 CELL| Numerically orthorhombic:                                             YES

 CELL_REF| Volume [angstrom^3]:                                         4096.000
 CELL_REF| Vector a [angstrom    16.000     0.000     0.000    |a| =      16.000
 CELL_REF| Vector b [angstrom     0.000    16.000     0.000    |b| =      16.000
 CELL_REF| Vector c [angstrom     0.000     0.000    16.000    |c| =      16.000
 CELL_REF| Angle (b,c), alpha [degree]:                                   90.000
 CELL_REF| Angle (a,c), beta  [degree]:                                   90.000
 CELL_REF| Angle (a,b), gamma [degree]:                                   90.000
 CELL_REF| Numerically orthorhombic:                                         YES

 *******************************************************************************
 *******************************************************************************
 **                                                                           **
 **     #####                         ##              ##                      **
 **    ##   ##            ##          ##              ##                      **
 **   ##     ##                       ##            ######                    **
 **   ##     ##  ##   ##  ##   #####  ##  ##   ####   ##    #####    #####    **
 **   ##     ##  ##   ##  ##  ##      ## ##   ##      ##   ##   ##  ##   ##   **
 **   ##  ## ##  ##   ##  ##  ##      ####     ###    ##   ######   ######    **
 **    ##  ###   ##   ##  ##  ##      ## ##      ##   ##   ##       ##        **
 **     #######   #####   ##   #####  ##  ##  ####    ##    #####   ##        **
 **           ##                                                    ##        **
 **                                                                           **
 **                                                ... make the atoms dance   **
 **                                                                           **
 **            Copyright (C) by CP2K developers group (2000 - 2019)           **
 **                                                                           **
 *******************************************************************************

 DFT| Spin restricted Kohn-Sham (RKS) calculation                            RKS
 DFT| Multiplicity                                                             1
 DFT| Number of spin states                                                    1
 DFT| Charge                                                                   0
 DFT| Self-interaction correction (SIC)                                       NO
 DFT| Cutoffs: density                                              1.000000E-10
 DFT|          gradient                                             1.000000E-10
 DFT|          tau                                                  1.000000E-10
 DFT|          cutoff_smoothing_range                               0.000000E+00
 DFT| XC density smoothing                                                  NONE
 DFT| XC derivatives                                                          PW
 FUNCTIONAL| ROUTINE=NEW
 FUNCTIONAL| PBE:
 FUNCTIONAL| J.P.Perdew, K.Burke, M.Ernzerhof, Phys. Rev. Letter, vol. 77, n 18,
 FUNCTIONAL|  pp. 3865-3868, (1996){spin unpolarized}                           

 QS| Method:                                                                GAPW
 QS| Density plane wave grid type                        NON-SPHERICAL FULLSPACE
 QS| Number of grid levels:                                                    4
 QS| Density cutoff [a.u.]:                                                200.0
 QS| Multi grid cutoff [a.u.]: 1) grid level                               200.0
 QS|                           2) grid level                                66.7
 QS|                           3) grid level                                22.2
 QS|                           4) grid level                                 7.4
 QS| Grid level progression factor:                                          3.0
 QS| Relative density cutoff [a.u.]:                                        25.0
 QS| Consistent realspace mapping and integration 
 QS| Interaction thresholds: eps_pgf_orb:                                1.0E-05
 QS|                         eps_filter_matrix:                          0.0E+00
 QS|                         eps_core_charge:                            1.0E-12
 QS|                         eps_rho_gspace:                             1.0E-10
 QS|                         eps_rho_rspace:                             1.0E-10
 QS|                         eps_gvg_rspace:                             1.0E-05
 QS|                         eps_ppl:                                    1.0E-02
 QS|                         eps_ppnl:                                   1.0E-07
 QS| GAPW|                   eps_fit:                                    1.0E-04
 QS| GAPW|                   eps_iso:                                    1.0E-12
 QS| GAPW|                   eps_svd:                                    1.0E-08
 QS| GAPW|                   eps_cpc:                                    1.0E-10
 QS| GAPW|   atom-r-grid: quadrature:                 GC_LOG                        
 QS| GAPW|      atom-s-grid:  max l :                                          8
 QS| GAPW|      max_l_rho0 :                                                   2


 ATOMIC KIND INFORMATION

  1. Atomic kind: N                                     Number of atoms:       2

     Orbital Basis Set                                                 def2-QZVP

       Number of orbital shell sets:                                          17
       Number of orbital shells:                                              17
       Number of primitive Cartesian functions:                               29
       Number of Cartesian basis functions:                                   72
       Number of spherical basis functions:                                   57
       Norm type:                                                              2

       Normalised Cartesian orbitals:

                        Set   Shell   Orbital            Exponent    Coefficient

                          1       1    1s            90726.889210       0.264461
                                                     13590.528801       0.494937
                                                      3092.988378       0.855170
                                                       875.998764       1.389874
                                                       285.744700       2.121698
                                                       103.119134       2.979703
                                                        40.128557       3.622800
                                                        16.528096       3.451840

                          2       1    1s               69.390961       1.621997
                                                        20.428201       6.338076

                          3       1    1s                7.129259       3.109520

                          4       1    1s                3.132430       1.678113

                          5       1    1s                0.987558       0.706044

                          6       1    1s                0.387657       0.350143

                          7       1    1s                0.149099       0.171008

                          8       1    1px             150.057427      -1.834160
                                                        35.491599      -2.406167
                                                        11.247864      -2.652970
                                                         4.090031      -2.482665
                                                         1.622057      -1.818128
                          8       1    1py             150.057427      -1.834160
                                                        35.491599      -2.406167
                                                        11.247864      -2.652970
                                                         4.090031      -2.482665
                                                         1.622057      -1.818128
                          8       1    1pz             150.057427      -1.834160
                                                        35.491599      -2.406167
                                                        11.247864      -2.652970
                                                         4.090031      -2.482665
                                                         1.622057      -1.818128

                          9       1    1px               0.664423       0.855058
                          9       1    1py               0.664423       0.855058
                          9       1    1pz               0.664423       0.855058

                         10       1    1px               0.270998       0.278706
                         10       1    1py               0.270998       0.278706
                         10       1    1pz               0.270998       0.278706

                         11       1    1px               0.106887       0.087116
                         11       1    1py               0.106887       0.087116
                         11       1    1pz               0.106887       0.087116

                         12       1    1dx2              2.837000      10.207357
                         12       1    1dxy              2.837000      17.679661
                         12       1    1dxz              2.837000      17.679661
                         12       1    1dy2              2.837000      10.207357
                         12       1    1dyz              2.837000      17.679661
                         12       1    1dz2              2.837000      10.207357

                         13       1    1dx2              0.968000       1.554860
                         13       1    1dxy              0.968000       2.693097
                         13       1    1dxz              0.968000       2.693097
                         13       1    1dy2              0.968000       1.554860
                         13       1    1dyz              0.968000       2.693097
                         13       1    1dz2              0.968000       1.554860

                         14       1    1dx2              0.335000       0.242794
                         14       1    1dxy              0.335000       0.420531
                         14       1    1dxz              0.335000       0.420531
                         14       1    1dy2              0.335000       0.242794
                         14       1    1dyz              0.335000       0.420531
                         14       1    1dz2              0.335000       0.242794

                         15       1    1fx3              2.027000       7.217310
                         15       1    1fx2y             2.027000      16.138397
                         15       1    1fx2z             2.027000      16.138397
                         15       1    1fxy2             2.027000      16.138397
                         15       1    1fxyz             2.027000      27.952523
                         15       1    1fxz2             2.027000      16.138397
                         15       1    1fy3              2.027000       7.217310
                         15       1    1fy2z             2.027000      16.138397
                         15       1    1fyz2             2.027000      16.138397
                         15       1    1fz3              2.027000       7.217310

                         16       1    1fx3              0.685000       0.628432
                         16       1    1fx2y             0.685000       1.405216
                         16       1    1fx2z             0.685000       1.405216
                         16       1    1fxy2             0.685000       1.405216
                         16       1    1fxyz             0.685000       2.433906
                         16       1    1fxz2             0.685000       1.405216
                         16       1    1fy3              0.685000       0.628432
                         16       1    1fy2z             0.685000       1.405216
                         16       1    1fyz2             0.685000       1.405216
                         16       1    1fz3              0.685000       0.628432

                         17       1    1gx4              1.427000       2.958703
                         17       1    1gx3y             1.427000       7.827992
                         17       1    1gx3z             1.427000       7.827992
                         17       1    1gx2y2            1.427000      10.105894
                         17       1    1gx2yz            1.427000      17.503922
                         17       1    1gx2z2            1.427000      10.105894
                         17       1    1gxy3             1.427000       7.827992
                         17       1    1gxy2z            1.427000      17.503922
                         17       1    1gxyz2            1.427000      17.503922
                         17       1    1gxz3             1.427000       7.827992
                         17       1    1gy4              1.427000       2.958703
                         17       1    1gy3z             1.427000       7.827992
                         17       1    1gy2z2            1.427000      10.105894
                         17       1    1gyz3             1.427000       7.827992
                         17       1    1gz4              1.427000       2.958703

     RI Auxiliary Basis Set                                                RI-5Z

       Number of orbital shell sets:                                          39
       Number of orbital shells:                                              39
       Number of primitive Cartesian functions:                               39
       Number of Cartesian basis functions:                                  287
       Number of spherical basis functions:                                  193
       Norm type:                                                              2

       Normalised Cartesian orbitals:

                        Set   Shell   Orbital            Exponent    Coefficient

                          1       1    1s              330.814000      55.283815

                          2       1    1s               72.692500      17.743010

                          3       1    1s               18.515300       6.361480

                          4       1    1s                8.569100       3.569534

                          5       1    1s                3.809660       1.943456

                          6       1    1s                2.248340       1.308599

                          7       1    1s                1.312410       0.873901

                          8       1    1s                0.758637       0.579343

                          9       1    1s                0.378879       0.344180

                         10       1    1s                0.175888       0.193570

                         11       1    1px              66.987000     273.167010
                         11       1    1py              66.987000     273.167010
                         11       1    1pz              66.987000     273.167010

                         12       1    1px              18.749800      55.614225
                         12       1    1py              18.749800      55.614225
                         12       1    1pz              18.749800      55.614225

                         13       1    1px               7.480640      17.634515
                         13       1    1py               7.480640      17.634515
                         13       1    1pz               7.480640      17.634515

                         14       1    1px               3.761240       7.466274
                         14       1    1py               3.761240       7.466274
                         14       1    1pz               3.761240       7.466274

                         15       1    1px               2.075610       3.551177
                         15       1    1py               2.075610       3.551177
                         15       1    1pz               2.075610       3.551177

                         16       1    1px               0.990652       1.408775
                         16       1    1py               0.990652       1.408775
                         16       1    1pz               0.990652       1.408775

                         17       1    1px               0.519429       0.628562
                         17       1    1py               0.519429       0.628562
                         17       1    1pz               0.519429       0.628562

                         18       1    1px               0.311991       0.332367
                         18       1    1py               0.311991       0.332367
                         18       1    1pz               0.311991       0.332367

                         19       1    1dx2             17.120900     237.181597
                         19       1    1dxy             17.120900     410.810577
                         19       1    1dxz             17.120900     410.810577
                         19       1    1dy2             17.120900     237.181597
                         19       1    1dyz             17.120900     410.810577
                         19       1    1dz2             17.120900     237.181597

                         20       1    1dx2              5.810520      35.791979
                         20       1    1dxy              5.810520      61.993525
                         20       1    1dxz              5.810520      61.993525
                         20       1    1dy2              5.810520      35.791979
                         20       1    1dyz              5.810520      61.993525
                         20       1    1dz2              5.810520      35.791979

                         21       1    1dx2              3.550630      15.116246
                         21       1    1dxy              3.550630      26.182105
                         21       1    1dxz              3.550630      26.182105
                         21       1    1dy2              3.550630      15.116246
                         21       1    1dyz              3.550630      26.182105
                         21       1    1dz2              3.550630      15.116246

                         22       1    1dx2              2.262180       6.868027
                         22       1    1dxy              2.262180      11.895771
                         22       1    1dxz              2.262180      11.895771
                         22       1    1dy2              2.262180       6.868027
                         22       1    1dyz              2.262180      11.895771
                         22       1    1dz2              2.262180       6.868027

                         23       1    1dx2              1.105370       1.961317
                         23       1    1dxy              1.105370       3.397101
                         23       1    1dxz              1.105370       3.397101
                         23       1    1dy2              1.105370       1.961317
                         23       1    1dyz              1.105370       3.397101
                         23       1    1dz2              1.105370       1.961317

                         24       1    1dx2              0.568580       0.612766
                         24       1    1dxy              0.568580       1.061342
                         24       1    1dxz              0.568580       1.061342
                         24       1    1dy2              0.568580       0.612766
                         24       1    1dyz              0.568580       1.061342
                         24       1    1dz2              0.568580       0.612766

                         25       1    1dx2              0.281938       0.179547
                         25       1    1dxy              0.281938       0.310985
                         25       1    1dxz              0.281938       0.310985
                         25       1    1dy2              0.281938       0.179547
                         25       1    1dyz              0.281938       0.310985
                         25       1    1dz2              0.281938       0.179547

                         26       1    1fx3             10.195600     273.453335
                         26       1    1fx2y            10.195600     611.460245
                         26       1    1fx2z            10.195600     611.460245
                         26       1    1fxy2            10.195600     611.460245
                         26       1    1fxyz            10.195600    1059.080212
                         26       1    1fxz2            10.195600     611.460245
                         26       1    1fy3             10.195600     273.453335
                         26       1    1fy2z            10.195600     611.460245
                         26       1    1fyz2            10.195600     611.460245
                         26       1    1fz3             10.195600     273.453335

                         27       1    1fx3              4.611490      45.877243
                         27       1    1fx2y             4.611490     102.584634
                         27       1    1fx2z             4.611490     102.584634
                         27       1    1fxy2             4.611490     102.584634
                         27       1    1fxyz             4.611490     177.681798
                         27       1    1fxz2             4.611490     102.584634
                         27       1    1fy3              4.611490      45.877243
                         27       1    1fy2z             4.611490     102.584634
                         27       1    1fyz2             4.611490     102.584634
                         27       1    1fz3              4.611490      45.877243

                         28       1    1fx3              2.818460      15.152391
                         28       1    1fx2y             2.818460      33.881776
                         28       1    1fx2z             2.818460      33.881776
                         28       1    1fxy2             2.818460      33.881776
                         28       1    1fxyz             2.818460      58.684958
                         28       1    1fxz2             2.818460      33.881776
                         28       1    1fy3              2.818460      15.152391
                         28       1    1fy2z             2.818460      33.881776
                         28       1    1fyz2             2.818460      33.881776
                         28       1    1fz3              2.818460      15.152391

                         29       1    1fx3              1.544330       3.913990
                         29       1    1fx2y             1.544330       8.751947
                         29       1    1fx2z             1.544330       8.751947
                         29       1    1fxy2             1.544330       8.751947
                         29       1    1fxyz             1.544330      15.158817
                         29       1    1fxz2             1.544330       8.751947
                         29       1    1fy3              1.544330       3.913990
                         29       1    1fy2z             1.544330       8.751947
                         29       1    1fyz2             1.544330       8.751947
                         29       1    1fz3              1.544330       3.913990

                         30       1    1fx3              0.895075       1.147197
                         30       1    1fx2y             0.895075       2.565211
                         30       1    1fx2z             0.895075       2.565211
                         30       1    1fxy2             0.895075       2.565211
                         30       1    1fxyz             0.895075       4.443076
                         30       1    1fxz2             0.895075       2.565211
                         30       1    1fy3              0.895075       1.147197
                         30       1    1fy2z             0.895075       2.565211
                         30       1    1fyz2             0.895075       2.565211
                         30       1    1fz3              0.895075       1.147197

                         31       1    1fx3              0.470440       0.269829
                         31       1    1fx2y             0.470440       0.603356
                         31       1    1fx2z             0.470440       0.603356
                         31       1    1fxy2             0.470440       0.603356
                         31       1    1fxyz             0.470440       1.045044
                         31       1    1fxz2             0.470440       0.603356
                         31       1    1fy3              0.470440       0.269829
                         31       1    1fy2z             0.470440       0.603356
                         31       1    1fyz2             0.470440       0.603356
                         31       1    1fz3              0.470440       0.269829

                         32       1    1gx4              5.478920     119.631780
                         32       1    1gx3y             5.478920     316.515938
                         32       1    1gx3z             5.478920     316.515938
                         32       1    1gx2y2            5.478920     408.620318
                         32       1    1gx2yz            5.478920     707.751152
                         32       1    1gx2z2            5.478920     408.620318
                         32       1    1gxy3             5.478920     316.515938
                         32       1    1gxy2z            5.478920     707.751152
                         32       1    1gxyz2            5.478920     707.751152
                         32       1    1gxz3             5.478920     316.515938
                         32       1    1gy4              5.478920     119.631780
                         32       1    1gy3z             5.478920     316.515938
                         32       1    1gy2z2            5.478920     408.620318
                         32       1    1gyz3             5.478920     316.515938
                         32       1    1gz4              5.478920     119.631780

                         33       1    1gx4              3.053470      23.967238
                         33       1    1gx3y             3.053470      63.411351
                         33       1    1gx3z             3.053470      63.411351
                         33       1    1gx2y2            3.053470      81.863702
                         33       1    1gx2yz            3.053470     141.792090
                         33       1    1gx2z2            3.053470      81.863702
                         33       1    1gxy3             3.053470      63.411351
                         33       1    1gxy2z            3.053470     141.792090
                         33       1    1gxyz2            3.053470     141.792090
                         33       1    1gxz3             3.053470      63.411351
                         33       1    1gy4              3.053470      23.967238
                         33       1    1gy3z             3.053470      63.411351
                         33       1    1gy2z2            3.053470      81.863702
                         33       1    1gyz3             3.053470      63.411351
                         33       1    1gz4              3.053470      23.967238

                         34       1    1gx4              1.482770       3.287671
                         34       1    1gx3y             1.482770       8.698360
                         34       1    1gx3z             1.482770       8.698360
                         34       1    1gx2y2            1.482770      11.229534
                         34       1    1gx2yz            1.482770      19.450124
                         34       1    1gx2z2            1.482770      11.229534
                         34       1    1gxy3             1.482770       8.698360
                         34       1    1gxy2z            1.482770      19.450124
                         34       1    1gxyz2            1.482770      19.450124
                         34       1    1gxz3             1.482770       8.698360
                         34       1    1gy4              1.482770       3.287671
                         34       1    1gy3z             1.482770       8.698360
                         34       1    1gy2z2            1.482770      11.229534
                         34       1    1gyz3             1.482770       8.698360
                         34       1    1gz4              1.482770       3.287671

                         35       1    1gx4              0.844875       0.700027
                         35       1    1gx3y             0.844875       1.852097
                         35       1    1gx3z             0.844875       1.852097
                         35       1    1gx2y2            0.844875       2.391047
                         35       1    1gx2yz            0.844875       4.141415
                         35       1    1gx2z2            0.844875       2.391047
                         35       1    1gxy3             0.844875       1.852097
                         35       1    1gxy2z            0.844875       4.141415
                         35       1    1gxyz2            0.844875       4.141415
                         35       1    1gxz3             0.844875       1.852097
                         35       1    1gy4              0.844875       0.700027
                         35       1    1gy3z             0.844875       1.852097
                         35       1    1gy2z2            0.844875       2.391047
                         35       1    1gyz3             0.844875       1.852097
                         35       1    1gz4              0.844875       0.700027

                         36       1    1hx5              3.904570      62.080772
                         36       1    1hx4y             3.904570     186.242316
                         36       1    1hx4z             3.904570     186.242316
                         36       1    1hx3y2            3.904570     284.489837
                         36       1    1hx3yz            3.904570     492.750852
                         36       1    1hx3z2            3.904570     284.489837
                         36       1    1hx2y3            3.904570     284.489837
                         36       1    1hx2y2z           3.904570     636.138614
                         36       1    1hx2yz2           3.904570     636.138614
                         36       1    1hx2z3            3.904570     284.489837
                         36       1    1hxy4             3.904570     186.242316
                         36       1    1hxy3z            3.904570     492.750852
                         36       1    1hxy2z2           3.904570     636.138614
                         36       1    1hxyz3            3.904570     492.750852
                         36       1    1hxz4             3.904570     186.242316
                         36       1    1hy5              3.904570      62.080772
                         36       1    1hy4z             3.904570     186.242316
                         36       1    1hy3z2            3.904570     284.489837
                         36       1    1hy2z3            3.904570     284.489837
                         36       1    1hyz4             3.904570     186.242316
                         36       1    1hz5              3.904570      62.080772

                         37       1    1hx5              2.294020      11.022626
                         37       1    1hx4y             2.294020      33.067878
                         37       1    1hx4z             2.294020      33.067878
                         37       1    1hx3y2            2.294020      50.512017
                         37       1    1hx3yz            2.294020      87.489380
                         37       1    1hx3z2            2.294020      50.512017
                         37       1    1hx2y3            2.294020      50.512017
                         37       1    1hx2y2z           2.294020     112.948304
                         37       1    1hx2yz2           2.294020     112.948304
                         37       1    1hx2z3            2.294020      50.512017
                         37       1    1hxy4             2.294020      33.067878
                         37       1    1hxy3z            2.294020      87.489380
                         37       1    1hxy2z2           2.294020     112.948304
                         37       1    1hxyz3            2.294020      87.489380
                         37       1    1hxz4             2.294020      33.067878
                         37       1    1hy5              2.294020      11.022626
                         37       1    1hy4z             2.294020      33.067878
                         37       1    1hy3z2            2.294020      50.512017
                         37       1    1hy2z3            2.294020      50.512017
                         37       1    1hyz4             2.294020      33.067878
                         37       1    1hz5              2.294020      11.022626

                         38       1    1hx5              1.319300       1.825832
                         38       1    1hx4y             1.319300       5.477495
                         38       1    1hx4z             1.319300       5.477495
                         38       1    1hx3y2            1.319300       8.367012
                         38       1    1hx3yz            1.319300      14.492090
                         38       1    1hx3z2            1.319300       8.367012
                         38       1    1hx2y3            1.319300       8.367012
                         38       1    1hx2y2z           1.319300      18.709208
                         38       1    1hx2yz2           1.319300      18.709208
                         38       1    1hx2z3            1.319300       8.367012
                         38       1    1hxy4             1.319300       5.477495
                         38       1    1hxy3z            1.319300      14.492090
                         38       1    1hxy2z2           1.319300      18.709208
                         38       1    1hxyz3            1.319300      14.492090
                         38       1    1hxz4             1.319300       5.477495
                         38       1    1hy5              1.319300       1.825832
                         38       1    1hy4z             1.319300       5.477495
                         38       1    1hy3z2            1.319300       8.367012
                         38       1    1hy2z3            1.319300       8.367012
                         38       1    1hyz4             1.319300       5.477495
                         38       1    1hz5              1.319300       1.825832

                         39       1    1ix6              2.487090      13.630788
                         39       1    1ix5y             2.487090      45.208208
                         39       1    1ix5z             2.487090      45.208208
                         39       1    1ix4y2            2.487090      78.302913
                         39       1    1ix4yz            2.487090     135.624624
                         39       1    1ix4z2            2.487090      78.302913
                         39       1    1ix3y3            2.487090      92.649256
                         39       1    1ix3y2z           2.487090     207.170035
                         39       1    1ix3yz2           2.487090     207.170035
                         39       1    1ix3z3            2.487090      92.649256
                         39       1    1ix2y4            2.487090      78.302913
                         39       1    1ix2y3z           2.487090     207.170035
                         39       1    1ix2y2z2          2.487090     267.455365
                         39       1    1ix2yz3           2.487090     207.170035
                         39       1    1ix2z4            2.487090      78.302913
                         39       1    1ixy5             2.487090      45.208208
                         39       1    1ixy4z            2.487090     135.624624
                         39       1    1ixy3z2           2.487090     207.170035
                         39       1    1ixy2z3           2.487090     207.170035
                         39       1    1ixyz4            2.487090     135.624624
                         39       1    1ixz5             2.487090      45.208208
                         39       1    1iy6              2.487090      13.630788
                         39       1    1iy5z             2.487090      45.208208
                         39       1    1iy4z2            2.487090      78.302913
                         39       1    1iy3z3            2.487090      92.649256
                         39       1    1iy2z4            2.487090      78.302913
                         39       1    1iyz5             2.487090      45.208208
                         39       1    1iz6              2.487090      13.630788

     The atoms of this atomic kind are PAW atoms (GAPW):
       Hard Gaussian function radius:                                      1.512
       Rho0 radius:                                                        1.512
       Maximum GTO radius used for PAW projector construction:            24.566

     GAPW Soft Basis Set                                          def2-QZVP_soft

       Number of orbital shell sets:                                          17
       Number of orbital shells:                                              17
       Number of primitive Cartesian functions:                               15
       Number of Cartesian basis functions:                                   72
       Number of spherical basis functions:                                   57
       Norm type:                                                              2

       Normalised Cartesian orbitals:

                        Set   Shell   Orbital            Exponent    Coefficient

                          1       1    1s         

                          2       1    1s         

                          3       1    1s         

                          4       1    1s                3.132430       1.678113

                          5       1    1s                0.987558       0.706044

                          6       1    1s                0.387657       0.350143

                          7       1    1s                0.149099       0.171008

                          8       1    1px               4.090031      -2.482665
                                                         1.622057      -1.818128
                          8       1    1py               4.090031      -2.482665
                                                         1.622057      -1.818128
                          8       1    1pz               4.090031      -2.482665
                                                         1.622057      -1.818128

                          9       1    1px               0.664423       0.855058
                          9       1    1py               0.664423       0.855058
                          9       1    1pz               0.664423       0.855058

                         10       1    1px               0.270998       0.278706
                         10       1    1py               0.270998       0.278706
                         10       1    1pz               0.270998       0.278706

                         11       1    1px               0.106887       0.087116
                         11       1    1py               0.106887       0.087116
                         11       1    1pz               0.106887       0.087116

                         12       1    1dx2              2.837000      10.207357
                         12       1    1dxy              2.837000      17.679661
                         12       1    1dxz              2.837000      17.679661
                         12       1    1dy2              2.837000      10.207357
                         12       1    1dyz              2.837000      17.679661
                         12       1    1dz2              2.837000      10.207357

                         13       1    1dx2              0.968000       1.554860
                         13       1    1dxy              0.968000       2.693097
                         13       1    1dxz              0.968000       2.693097
                         13       1    1dy2              0.968000       1.554860
                         13       1    1dyz              0.968000       2.693097
                         13       1    1dz2              0.968000       1.554860

                         14       1    1dx2              0.335000       0.242794
                         14       1    1dxy              0.335000       0.420531
                         14       1    1dxz              0.335000       0.420531
                         14       1    1dy2              0.335000       0.242794
                         14       1    1dyz              0.335000       0.420531
                         14       1    1dz2              0.335000       0.242794

                         15       1    1fx3              2.027000       7.217310
                         15       1    1fx2y             2.027000      16.138397
                         15       1    1fx2z             2.027000      16.138397
                         15       1    1fxy2             2.027000      16.138397
                         15       1    1fxyz             2.027000      27.952523
                         15       1    1fxz2             2.027000      16.138397
                         15       1    1fy3              2.027000       7.217310
                         15       1    1fy2z             2.027000      16.138397
                         15       1    1fyz2             2.027000      16.138397
                         15       1    1fz3              2.027000       7.217310

                         16       1    1fx3              0.685000       0.628432
                         16       1    1fx2y             0.685000       1.405216
                         16       1    1fx2z             0.685000       1.405216
                         16       1    1fxy2             0.685000       1.405216
                         16       1    1fxyz             0.685000       2.433906
                         16       1    1fxz2             0.685000       1.405216
                         16       1    1fy3              0.685000       0.628432
                         16       1    1fy2z             0.685000       1.405216
                         16       1    1fyz2             0.685000       1.405216
                         16       1    1fz3              0.685000       0.628432

                         17       1    1gx4              1.427000       2.958703
                         17       1    1gx3y             1.427000       7.827992
                         17       1    1gx3z             1.427000       7.827992
                         17       1    1gx2y2            1.427000      10.105894
                         17       1    1gx2yz            1.427000      17.503922
                         17       1    1gx2z2            1.427000      10.105894
                         17       1    1gxy3             1.427000       7.827992
                         17       1    1gxy2z            1.427000      17.503922
                         17       1    1gxyz2            1.427000      17.503922
                         17       1    1gxz3             1.427000       7.827992
                         17       1    1gy4              1.427000       2.958703
                         17       1    1gy3z             1.427000       7.827992
                         17       1    1gy2z2            1.427000      10.105894
                         17       1    1gyz3             1.427000       7.827992
                         17       1    1gz4              1.427000       2.958703

     AE Potential information for                                            ALL

       Description:                                       All-electron potential
                                          Krack, Parrinello, PCCP 2, 2105 (2000)

       Gaussian exponent of the core charge distribution:               5.979100
       Electronic configuration (s p d ...):                           4   3   0


 MOLECULE KIND INFORMATION


 All atoms are their own molecule, skipping detailed information


 TOTAL NUMBERS AND MAXIMUM NUMBERS

  Total number of            - Atomic kinds:                                   1
                             - Atoms:                                          2
                             - Shell sets:                                    34
                             - Shells:                                        34
                             - Primitive Cartesian functions:                 58
                             - Cartesian basis functions:                    144
                             - Spherical basis functions:                    114

  Maximum angular momentum of the orbital basis functions:                     4


 MODULE QUICKSTEP:  ATOMIC COORDINATES IN angstrom

  Atom  Kind  Element       X           Y           Z          Z(eff)       Mass

       1     1 N    7    8.000000    8.000000    7.451150      7.00      14.0067
       2     1 N    7    8.000000    8.000000    8.548850      7.00      14.0067




 SCF PARAMETERS         Density guess:                                   RESTART
                        --------------------------------------------------------
                        max_scf:                                             200
                        max_scf_history:                                       0
                        max_diis:                                              4
                        --------------------------------------------------------
                        eps_scf:                                        1.00E-06
                        eps_scf_history:                                0.00E+00
                        eps_diis:                                       1.00E-01
                        eps_eigval:                                     1.00E-05
                        --------------------------------------------------------
                        level_shift [a.u.]:                                 0.00
                        --------------------------------------------------------
                        Mixing method:                           DIRECT_P_MIXING
                        --------------------------------------------------------
                        No outer SCF

 PW_GRID| Information for grid number                                          1
 PW_GRID| Grid distributed over                                    24 processors
 PW_GRID| Real space group dimensions                                    24    1
 PW_GRID| the grid is blocked:                                                NO
 PW_GRID| Cutoff [a.u.]                                                    400.0
 PW_GRID| spherical cutoff:                                                   NO
 PW_GRID|   Bounds   1           -144     143                Points:         288
 PW_GRID|   Bounds   2           -144     143                Points:         288
 PW_GRID|   Bounds   3           -144     143                Points:         288
 PW_GRID| Volume element (a.u.^3)  0.1157E-02     Volume (a.u.^3)     27641.1785
 PW_GRID| Grid span                                                    FULLSPACE
 PW_GRID|   Distribution                         Average         Max         Min
 PW_GRID|   G-Vectors                           995328.0      995328      995328
 PW_GRID|   G-Rays                                3456.0        3456        3456
 PW_GRID|   Real Space Points                   995328.0      995328      995328

 PW_GRID| Information for grid number                                          2
 PW_GRID| Grid distributed over                                    24 processors
 PW_GRID| Real space group dimensions                                    24    1
 PW_GRID| the grid is blocked:                                                NO
 PW_GRID| Cutoff [a.u.]                                                    200.0
 PW_GRID| spherical cutoff:                                                   NO
 PW_GRID|   Bounds   1           -100      99                Points:         200
 PW_GRID|   Bounds   2           -100      99                Points:         200
 PW_GRID|   Bounds   3           -100      99                Points:         200
 PW_GRID| Volume element (a.u.^3)  0.3455E-02     Volume (a.u.^3)     27641.1785
 PW_GRID| Grid span                                                    FULLSPACE
 PW_GRID|   Distribution                         Average         Max         Min
 PW_GRID|   G-Vectors                           333333.3      333600      333200
 PW_GRID|   G-Rays                                1666.7        1668        1666
 PW_GRID|   Real Space Points                   333333.3      360000      320000

 PW_GRID| Information for grid number                                          3
 PW_GRID| Grid distributed over                                    24 processors
 PW_GRID| Real space group dimensions                                    24    1
 PW_GRID| the grid is blocked:                                                NO
 PW_GRID| Cutoff [a.u.]                                                     66.7
 PW_GRID| spherical cutoff:                                                   NO
 PW_GRID|   Bounds   1            -60      59                Points:         120
 PW_GRID|   Bounds   2            -60      59                Points:         120
 PW_GRID|   Bounds   3            -60      59                Points:         120
 PW_GRID| Volume element (a.u.^3)  0.1600E-01     Volume (a.u.^3)     27641.1785
 PW_GRID| Grid span                                                    FULLSPACE
 PW_GRID|   Distribution                         Average         Max         Min
 PW_GRID|   G-Vectors                            72000.0       72360       71760
 PW_GRID|   G-Rays                                 600.0         603         598
 PW_GRID|   Real Space Points                    72000.0       72000       72000

 PW_GRID| Information for grid number                                          4
 PW_GRID| Grid distributed over                                    24 processors
 PW_GRID| Real space group dimensions                                    24    1
 PW_GRID| the grid is blocked:                                                NO
 PW_GRID| Cutoff [a.u.]                                                     22.2
 PW_GRID| spherical cutoff:                                                   NO
 PW_GRID|   Bounds   1            -36      35                Points:          72
 PW_GRID|   Bounds   2            -36      35                Points:          72
 PW_GRID|   Bounds   3            -36      35                Points:          72
 PW_GRID| Volume element (a.u.^3)  0.7406E-01     Volume (a.u.^3)     27641.1785
 PW_GRID| Grid span                                                    FULLSPACE
 PW_GRID|   Distribution                         Average         Max         Min
 PW_GRID|   G-Vectors                            15552.0       15768       15408
 PW_GRID|   G-Rays                                 216.0         219         214
 PW_GRID|   Real Space Points                    15552.0       15552       15552

 PW_GRID| Information for grid number                                          5
 PW_GRID| Grid distributed over                                    24 processors
 PW_GRID| Real space group dimensions                                    24    1
 PW_GRID| the grid is blocked:                                                NO
 PW_GRID| Cutoff [a.u.]                                                      7.4
 PW_GRID| spherical cutoff:                                                   NO
 PW_GRID|   Bounds   1            -20      19                Points:          40
 PW_GRID|   Bounds   2            -20      19                Points:          40
 PW_GRID|   Bounds   3            -20      19                Points:          40
 PW_GRID| Volume element (a.u.^3)  0.4319         Volume (a.u.^3)     27641.1785
 PW_GRID| Grid span                                                    FULLSPACE
 PW_GRID|   Distribution                         Average         Max         Min
 PW_GRID|   G-Vectors                             2666.7        2720        2640
 PW_GRID|   G-Rays                                  66.7          68          66
 PW_GRID|   Real Space Points                     2666.7        3200        1600

 POISSON| Solver                                          Martyna-Tuckerman (MT)
 POISSON| MT| Alpha                                                        7.000
 POISSON| MT| Relative cutoff                                                2.0
 POISSON| Periodicity                                                       NONE

 RS_GRID| Information for grid number                                          2
 RS_GRID|   Bounds   1           -100      99                Points:         200
 RS_GRID|   Bounds   2           -100      99                Points:         200
 RS_GRID|   Bounds   3           -100      99                Points:         200
 RS_GRID| Real space distribution over                                  4 groups
 RS_GRID| Real space distribution along direction                              2
 RS_GRID| Border size                                                         25
 RS_GRID| Real space distribution over                                  6 groups
 RS_GRID| Real space distribution along direction                              3
 RS_GRID| Border size                                                         25
 RS_GRID|   Distribution                         Average         Max         Min
 RS_GRID|   Planes                                 100.0         100         100
 RS_GRID|   Distribution                         Average         Max         Min
 RS_GRID|   Planes                                  83.3          84          83

 RS_GRID| Information for grid number                                          3
 RS_GRID|   Bounds   1            -60      59                Points:         120
 RS_GRID|   Bounds   2            -60      59                Points:         120
 RS_GRID|   Bounds   3            -60      59                Points:         120
 RS_GRID| Real space distribution over                                  4 groups
 RS_GRID| Real space distribution along direction                              2
 RS_GRID| Border size                                                         25
 RS_GRID| Real space distribution over                                  6 groups
 RS_GRID| Real space distribution along direction                              3
 RS_GRID| Border size                                                         25
 RS_GRID|   Distribution                         Average         Max         Min
 RS_GRID|   Planes                                  80.0          80          80
 RS_GRID|   Distribution                         Average         Max         Min
 RS_GRID|   Planes                                  70.0          70          70

 RS_GRID| Information for grid number                                          4
 RS_GRID|   Bounds   1            -36      35                Points:          72
 RS_GRID|   Bounds   2            -36      35                Points:          72
 RS_GRID|   Bounds   3            -36      35                Points:          72
 RS_GRID| Real space fully replicated
 RS_GRID| Group size                                                           1

 RS_GRID| Information for grid number                                          5
 RS_GRID|   Bounds   1            -20      19                Points:          40
 RS_GRID|   Bounds   2            -20      19                Points:          40
 RS_GRID|   Bounds   3            -20      19                Points:          40
 RS_GRID| Real space fully replicated
 RS_GRID| Group size                                                           1
 
 RI-RPA| using GPW style
 

  HFX_INFO| Replica ID:                                                        1
  HFX_INFO| EPS_SCHWARZ:                                                 2.0E-17
  HFX_INFO| EPS_SCHWARZ_FORCES                                           1.0E-06
  HFX_INFO| EPS_STORAGE_SCALING:                                         1.0E+00
  HFX_INFO| NBINS:                                                            64
  HFX_INFO| BLOCK_SIZE:                                                        1
  HFX_INFO| FRACTION:                                               1.0000000000
  HFX_INFO| Interaction Potential:                                       COULOMB
  HFX_INFO| Number of periodic shells considered:                           NONE
  HFX_INFO| Number of periodic cells considered:                            NONE


 Number of electrons:                                                         14
 Number of occupied orbitals:                                                  7
 Number of molecular orbitals:                                                 7

 Number of orbital functions:                                                114
 Number of independent orbital functions:                                    114

 Extrapolation method: initial_guess

 *** WARNING in qs_initial_guess.F:267 :: User requested to restart the   ***
 *** wavefunction from the file named: ALL_ELEC-RESTART.wfn. This file    ***
 *** does not exist. Please check the existence of the file or change     ***
 *** properly the value of the keyword WFN_RESTART_FILE_NAME. Calculation ***
 *** continues using ATOMIC GUESS.                                        ***


 Atomic guess: The first density matrix is obtained in terms of atomic orbitals
               and electronic configurations assigned to each atomic kind

 Guess for atomic kind: N

 Electronic structure
    Total number of core electrons                                          0.00
    Total number of valence electrons                                       7.00
    Total number of electrons                                               7.00
    Multiplicity                                                   not specified
    S      2.00  2.00
    P      3.00


 *******************************************************************************
                  Iteration          Convergence                     Energy [au]
 *******************************************************************************
                          1        0.279524                     -53.981632046005
                          2        0.268685                     -53.983924920307
                          3        0.152417E-01                 -54.022628548562
                          4        0.551041E-03                 -54.022745486059
                          5        0.500952E-04                 -54.022745600998
                          6        0.486334E-06                 -54.022745602456

 Energy components [Hartree]           Total Energy ::          -54.022745602456
                                        Band Energy ::          -30.167521683328
                                     Kinetic Energy ::           53.720572583189
                                   Potential Energy ::         -107.743318185645
                                      Virial (-V/T) ::            2.005624903175
                                        Core Energy ::          -73.687675574144
                                          XC Energy ::           -6.139305459341
                                     Coulomb Energy ::           25.804235431029

 Orbital energies  State     L     Occupation   Energy[a.u.]          Energy[eV]

                       1     0          2.000     -14.012127         -381.289380
                       2     0          2.000      -0.674585          -18.356386

                       1     1          3.000      -0.264699           -7.202827


 Total Electron Density at R=0:                                       201.353138
 Re-scaling the density matrix to get the right number of electrons
                  # Electrons              Trace(P)               Scaling factor
                           14                14.000                        1.000


 SCF WAVEFUNCTION OPTIMIZATION

  Step     Update method      Time    Convergence         Total energy    Change
  ------------------------------------------------------------------------------
     1 P_Mix/Diag. 0.40E+00    2.3     0.20884798      -109.6524385408 -1.10E+02
     2 P_Mix/Diag. 0.40E+00    2.4     0.11714463      -109.5800084377  7.24E-02
     3 P_Mix/Diag. 0.40E+00    2.2     0.06819360      -109.5321641991  4.78E-02
     4 DIIS/Diag.  0.11E-01    2.3     0.04613061      -109.5027580817  2.94E-02
     5 DIIS/Diag.  0.16E-02    2.4     0.00127431      -109.4580408150  4.47E-02
     6 DIIS/Diag.  0.23E-02    2.4     0.00181418      -109.4580382777  2.54E-06
     7 DIIS/Diag.  0.22E-02    2.6     0.00093169      -109.4580388473 -5.70E-07
     8 DIIS/Diag.  0.38E-04    2.7     0.00001670      -109.4580431315 -4.28E-06
     9 DIIS/Diag.  0.50E-05    2.7     0.00000194      -109.4580431321 -5.89E-10
    10 DIIS/Diag.  0.73E-07    2.5     0.00000002      -109.4580431321 -2.13E-11

  *** SCF run converged in    10 steps ***


  Electronic density on regular grids:        -10.2036630576        3.7963369424
  Core density on regular grids:               14.0000000000        0.0000000000
  Hard and soft densities (Lebedev):          -24.7736399030      -20.9773027856
  Total Rho_soft + Rho1_hard - Rho1_soft      -14.0000001749
  Total charge density (r-space):              -0.0000001749
  Total Rho_soft + Rho0_soft (g-space):        -0.0000002711

  Overlap energy of the core charge distribution:               0.00000928679419
  Self energy of the core charge distribution:                -95.59915348636920
  Core Hamiltonian energy:                                    -14.95801659554860
  Hartree energy:                                              21.50388331520237
  Exchange-correlation energy:                                 -5.07801406794770

  GAPW| Exc from hard and soft atomic rho1:                    -8.50054771742798
  GAPW| local Eh = 1 center integrals:                         -6.82620386680013

  Total energy:                                              -109.45804313209706

 !-----------------------------------------------------------------------------!
                     Mulliken Population Analysis

 #  Atom  Element  Kind  Atomic population                           Net charge
       1     N        1          7.000000                              0.000000
       2     N        1          7.000000                             -0.000000
 # Total charge                             14.000000                  0.000000

 !-----------------------------------------------------------------------------!

 !-----------------------------------------------------------------------------!
                           Hirshfeld Charges

  #Atom  Element  Kind  Ref Charge     Population                    Net charge
      1       N      1       7.000          6.998                         0.002
      2       N      1       7.000          6.998                         0.002

  Total Charge                                                            0.004
 !-----------------------------------------------------------------------------!


 RI-RPA section
 --------------

  Used number of processes per group:                                          1
  Maximum allowed memory usage per MPI processes:                     200.00 MiB

  HFX_MEM_INFO| Est. max. program size before HFX [MiB]:                     409
  HFX_MEM_INFO| Number of cart. primitive ERI's calculated:            419844481
  HFX_MEM_INFO| Number of sph. ERI's calculated:                        63325558
  HFX_MEM_INFO| Number of sph. ERI's stored in-core:                    63325558
  HFX_MEM_INFO| Number of sph. ERI's stored on disk:                           0
  HFX_MEM_INFO| Number of sph. ERI's calculated on the fly:                    0
  HFX_MEM_INFO| Total memory consumption ERI's RAM [MiB]:                    374
  HFX_MEM_INFO| Whereof max-vals [MiB]:                                        1
  HFX_MEM_INFO| Total compression factor ERI's RAM:                         1.29
  HFX_MEM_INFO| Total memory consumption ERI's disk [MiB]:                     0
  HFX_MEM_INFO| Total compression factor ERI's disk:                        0.00
  HFX_MEM_INFO| Size of density/Fock matrix [MiB]:                             0
  HFX_MEM_INFO| Size of buffers [MiB]:                                         0
  HFX_MEM_INFO| Est. max. program size after HFX  [MiB]:                     472

  GPW_INFO| Density cutoff [a.u.]:                                         150.0
  GPW_INFO| Relative density cutoff [a.u.]:                                 25.0
  RI_INFO| Cholesky decomposition group size:                                 24
  RI_INFO| Number of groups for auxiliary basis functions                     24
  RI_INFO| Occupied  basis set size:                                           7
  RI_INFO| Virtual   basis set size:                                         107
  RI_INFO| Auxiliary basis set size:                                         386
  RI_INFO| Total memory for (ia|K) integrals:                           2.21 MiB
  RI_INFO| Group size for frequency integration:                              24
  INTEG_INFO| MINIMAX quadrature
  INTEG_INFO| Number of integration points:                                   14
  INTEG_INFO| Number of integration points per RPA group:                     14
  MATRIX_INFO| Number row processes:                                           4
  MATRIX_INFO| Number column processes:                                        6
  MATRIX_INFO| Row block size:                                                93
  MATRIX_INFO| Column block size:                                             32
 Emin =  0.30525832903720906      Emax =   210.96219065562352      Range =   691.09397054292515     
  INTEG_INFO| Range for the minimax approximation:                      691.0940
  INTEG_INFO| Minimax parameters:                    Weights           Abscissas
                                                1.8468583679        0.2266574195
                                                2.2730497844        0.7319322045
                                                3.2576043536        1.4092562194
                                                5.1047595137        2.4318782779
                                                8.3981345102        4.0808198388
                                               14.2262141161        6.8396603909
                                               24.6306188556       11.5704270848
                                               43.5066481242       19.8512492814
                                               78.4686437728       34.6441972227
                                              144.9161789646       61.6652035150
                                              275.8843626625      112.3673649443
                                              552.6404678077      211.3665366432
                                             1260.2391205056      422.1458790951
                                             4656.9886242254     1025.0242478897
  INTEG_INFO| Range for the minimax approximation:                      691.0940
  INTEG_INFO| Gap:                                                        0.3053
  INTEG_INFO| Minimax parameters of the time grid:   Weights           Abscissas
                                                0.0010910851        0.0004205356
                                                0.0027999279        0.0023258656
                                                0.0053090484        0.0062822005
                                                0.0095644566        0.0135195911
                                                0.0171027332        0.0264965088
                                                0.0303031865        0.0495973734
                                                0.0529380036        0.0902229506
                                                0.0910540264        0.1605946855
                                                0.1543078116        0.2806481327
                                                0.2581383621        0.4826322705
                                                0.4278403471        0.8186846938
                                                0.7084406535        1.3747887309
                                                1.1993026498        2.3037923075
                                                2.2643611867        3.9499351286
 
 tau scaled:   1.3776382804718151E-003   7.6193353250197764E-003   2.0579947774604375E-002   4.4289016427412627E-002   8.6800281252075451E-002  0.16247672427331750       0.29556261714075627       0.52609436066285664       0.91937911585009668        1.5810617585208360        2.6819405596607986        4.5036894986604512        7.5470252186816289        12.939647350555500     
 
 
 omega scaled:   6.9189065148761650E-002  0.22342840171314923       0.43018719871156069       0.74235109954691914        1.2457042450955638        2.0878633020993584        3.5319692381536121        6.0597591849280903        10.575429755032516        18.823816984719066        34.301074061200588        64.521395790077847        128.86354566250137        312.89718913342875     
 
 
 weights_cos_tf_t_to_w
[...]
  RPA_IM_TIME_INFO| Number of periodic images T for Chi_PQ^T(it):              1
  RPA_IM_TIME_INFO| Number of periodic images T for Chi_PQ^T(it):              1
  RPA_IM_TIME_INFO| Number of periodic images T for Chi_PQ^T(it):              1
  
  GW quasiparticle energies
  -------------------------
   
  The GW quasiparticle energies are calculated according to: 
  E_GW = E_SCF + Z * ( Sigc(E_SCF) + Sigx - vxc )
   
  The energy unit of the following table is eV.  Sigc_fit is a very conservative
  estimate of the statistical error of the fitting.
   
            MO      E_SCF       Sigc   Sigc_fit   Sigx-vxc          Z       E_GW
     1 ( occ )   -383.191      2.538      0.000    -42.174      1.000   -422.826
     2 ( occ )   -383.155      2.553      0.000    -42.108      1.000   -422.709
     3 ( occ )    -28.205      6.498      0.000    -11.342      1.000    -33.049
     4 ( occ )    -13.440      2.934      0.000     -7.307      1.000    -17.812
     5 ( occ )    -11.592      0.024      0.000     -4.808      1.000    -16.376
     6 ( occ )    -11.592      0.024      0.000     -4.808      1.000    -16.376
     7 ( occ )    -10.200      1.737      0.000     -6.493      1.000    -14.956
     8 ( vir )     -1.894     -2.338      0.000      6.690      1.000      2.458
     9 ( vir )     -1.894     -2.338      0.000      6.690      1.000      2.458
    10 ( vir )      3.363     -0.626      0.000      2.773      1.000      5.510
    11 ( vir )      4.308     -0.785      0.000      3.391      1.000      6.914
    12 ( vir )      4.308     -0.785      0.000      3.391      1.000      6.914
    13 ( vir )      5.496     -0.825      0.000      3.281      1.000      7.951
    14 ( vir )      6.491     -1.335      0.000      4.503      1.000      9.659
    15 ( vir )      7.316     -1.216      0.000      3.868      1.000      9.969
    16 ( vir )      7.316     -1.216      0.000      3.868      1.000      9.969
    17 ( vir )     13.175     -1.464      0.000      4.355      1.000     16.066
   
  GW HOMO-LUMO gap (eV)                                                    17.41
  

  Total RI-RPA Time=                                                   17.450700
  RI-RPA energy  =                                             -0.69008965931070

  Total EXX Time=                                                       9.819702
  EXX energy  =                                               -13.09434913325784

 ENERGY| Total FORCE_EVAL ( QS ) energy (a.u.):             -109.663919967313717


 -------------------------------------------------------------------------------
 -                                                                             -
 -                                DBCSR STATISTICS                             -
 -                                                                             -
 -------------------------------------------------------------------------------
 COUNTER                                    TOTAL       BLAS       SMM       ACC
 flops    57 x    57 x     7              1364580     100.0%      0.0%      0.0%
 flops    57 x    57 x    57              1481544     100.0%      0.0%      0.0%
 flops   114 x   114 x    57              2963088     100.0%      0.0%      0.0%
 flops   193 x   193 x   193           1610348768     100.0%      0.0%      0.0%
 flops    57 x   969 x    57           2871232272     100.0%      0.0%      0.0%
 flops   386 x   114 x    57           4775666112     100.0%      0.0%      0.0%
 flops   386 x   114 x   193           8085118944     100.0%      0.0%      0.0%
 flops   193 x   193 x   532          26633332992     100.0%      0.0%      0.0%
 flops   193 x   193 x   551          27584523456     100.0%      0.0%      0.0%
 flops    57 x   912 x    57          29725698816     100.0%      0.0%      0.0%
 flops inhomo. stacks                           0       0.0%      0.0%      0.0%
 flops total                       101.291731E+09     100.0%      0.0%      0.0%
 flops max/rank                     18.126821E+09     100.0%      0.0%      0.0%
 matmuls inhomo. stacks                         0       0.0%      0.0%      0.0%
 matmuls total                               8392     100.0%      0.0%      0.0%
 number of processed stacks                  2502     100.0%      0.0%      0.0%
 average stack size                                     3.4       0.0       0.0
 marketing flops                   101.860442E+09
 -------------------------------------------------------------------------------
 # multiplications                            783
 max memory usage/rank             532.537344E+06
 # max total images/rank                        3
 # max 3D layers                                1
 # MPI messages exchanged                  337440
 MPI messages size (bytes):
  total size                         2.791564E+09
  min size                           0.000000E+00
  max size                         595.984000E+03
  average size                       8.272771E+03
 MPI breakdown and total messages size (bytes):
             size <=      128              325680                        0
       128 < size <=     8192                  80                   510720
      8192 < size <=    32768                   6                   155952
     32768 < size <=   131072                2882                149817888
    131072 < size <=  4194304                8792               2641129344
   4194304 < size <= 16777216                   0                        0
  16777216 < size                               0                        0
 -------------------------------------------------------------------------------

 *** WARNING in dbcsr_mm.F:278 :: Using a non-square number of MPI ranks ***
 *** might lead to poor performance. Used ranks: 24 Suggested: 25 49     ***

 -------------------------------------------------------------------------------
 -                                                                             -
 -                      DBCSR MESSAGE PASSING PERFORMANCE                      -
 -                                                                             -
 -------------------------------------------------------------------------------

 ROUTINE             CALLS      AVE VOLUME [Bytes]
 MP_Group               43
 MP_Bcast               11                     12.
 MP_Allreduce         4435                      8.
 MP_Alltoall          2611                  53330.
 MP_Wait             42472
 MP_ISend            31252                  19850.
 MP_IRecv            31252                     62.
 MP_Memory           57244
 -------------------------------------------------------------------------------


 MEMORY| Estimated peak process memory [MiB]                                 508

 -------------------------------------------------------------------------------
 ----                             MULTIGRID INFO                            ----
 -------------------------------------------------------------------------------
 count for grid        1:          72222          cutoff [a.u.]          200.00
 count for grid        2:          10938          cutoff [a.u.]           66.67
 count for grid        3:           4026          cutoff [a.u.]           22.22
 count for grid        4:            777          cutoff [a.u.]            7.41
 total gridlevel count  :          87963

 -------------------------------------------------------------------------------
 -                                                                             -
 -                         MESSAGE PASSING PERFORMANCE                         -
 -                                                                             -
 -------------------------------------------------------------------------------

 ROUTINE             CALLS      AVE VOLUME [Bytes]
 MP_Group                5
 MP_Bcast              160                1867648.
 MP_Allreduce          550                  65122.
 MP_Sync                81
 MP_Alltoall           303                9353547.
 MP_ISendRecv         1104                  72049.
 MP_Wait              3496
 MP_comm_split          19
 MP_ISend             4736                 182277.
 MP_IRecv             4096                 293191.
 MP_Recv                 3                   1824.
 -------------------------------------------------------------------------------


 -------------------------------------------------------------------------------
 -                                                                             -
 -                           R E F E R E N C E S                               -
 -                                                                             -
 -------------------------------------------------------------------------------
 
 CP2K version 7.0 (Development Version), the CP2K developers group (2018).
 CP2K is freely available from https://www.cp2k.org/ .

 Schuett, Ole; Messmer, Peter; Hutter, Juerg; VandeVondele, Joost. 
 Electronic Structure Calculations on Graphics Processing Units, John Wiley & Sons, Ltd, 173-190 (2016). 
 GPU-Accelerated Sparse Matrix-Matrix Multiplication for Linear Scaling Density Functional Theory.
 https://dx.doi.org/10.1002/9781118670712.ch8


 Del Ben, M; Schuett, O; Wentz, T; Messmer, P; Hutter, J;
 VandeVondele, J. 
 COMPUTER PHYSICS COMMUNICATIONS, 187, 120-129 (2015). 
 Enabling simulation at the fifth rung of DFT: Large scale RPA
 calculations with excellent time to solution.
 https://dx.doi.org/10.1016/j.cpc.2014.10.021


 Borstnik, U; VandeVondele, J; Weber, V; Hutter, J. 
 PARALLEL COMPUTING, 40 (5-6), 47-58 (2014). 
 Sparse matrix multiplication: The distributed block-compressed sparse
 row library.
 https://dx.doi.org/10.1016/j.parco.2014.03.012


 Hutter, J; Iannuzzi, M; Schiffmann, F; VandeVondele, J. 
 WILEY INTERDISCIPLINARY REVIEWS-COMPUTATIONAL MOLECULAR SCIENCE, 4 (1), 15-25 (2014). 
 CP2K: atomistic simulations of condensed matter systems.
 https://dx.doi.org/10.1002/wcms.1159


 Del Ben, M; Hutter, J; VandeVondele, J. 
 JOURNAL OF CHEMICAL THEORY AND COMPUTATION, 9 (6), 2654-2671 (2013). 
 Electron Correlation in the Condensed Phase from a Resolution of
 Identity Approach Based on the Gaussian and Plane Waves Scheme.
 https://dx.doi.org/10.1021/ct4002202


 Del Ben, M; Hutter, J; VandeVondele, J. 
 JOURNAL OF CHEMICAL THEORY AND COMPUTATION, 8 (11), 4177-4188 (2012). 
 Second-Order Moller-Plesset Perturbation Theory in the Condensed Phase:
 An Efficient and Massively Parallel Gaussian and Plane Waves Approach.
 https://dx.doi.org/10.1021/ct300531w


 Guidon, M; Hutter, J; VandeVondele, J. 
 JOURNAL OF CHEMICAL THEORY AND COMPUTATION, 5 (11), 3010-3021 (2009). 
 Robust Periodic Hartree-Fock Exchange for Large-Scale Simulations Using
 Gaussian Basis Sets.
 https://dx.doi.org/10.1021/ct900494g


 Guidon, M; Schiffmann, F; Hutter, J; VandeVondele, J. 
 JOURNAL OF CHEMICAL PHYSICS, 128 (21), 214104 (2008). 
 Ab initio molecular dynamics using hybrid density functionals.
 https://dx.doi.org/10.1063/1.2931945


 Frigo, M; Johnson, SG. 
 PROCEEDINGS OF THE IEEE, 93 (2), 216-231 (2005). 
 The design and implementation of FFTW3.
 https://dx.doi.org/10.1109/JPROC.2004.840301


 Lippert, G; Hutter, J; Parrinello, M. 
 THEORETICAL CHEMISTRY ACCOUNTS, 103 (2), 124-140 (1999). 
 The Gaussian and augmented-plane-wave density functional method for ab
 initio molecular dynamics simulations.
 https://dx.doi.org/10.1007/s002140050523


 Krack, M; Parrinello, M. 
 PHYSICAL CHEMISTRY CHEMICAL PHYSICS, 2 (10), 2105-2112 (2000). 
 All-electron ab-initio molecular dynamics.
 https://dx.doi.org/10.1039/b001167n


 Martyna, GJ; Tuckerman, ME. 
 JOURNAL OF CHEMICAL PHYSICS, 110 (6), 2810-2821 (1999). 
 A reciprocal space based method for treating long range interactions in
 ab initio and force-field-based calculations in clusters.
 https://dx.doi.org/10.1063/1.477923


 Perdew, JP; Burke, K; Ernzerhof, M. 
 PHYSICAL REVIEW LETTERS, 77 (18), 3865-3868 (1996). 
 Generalized gradient approximation made simple.
 https://dx.doi.org/10.1103/PhysRevLett.77.3865


 -------------------------------------------------------------------------------
 -                                                                             -
 -                                T I M I N G                                  -
 -                                                                             -
 -------------------------------------------------------------------------------
 SUBROUTINE                       CALLS  ASD         SELF TIME        TOTAL TIME
                                MAXIMUM       AVERAGE  MAXIMUM  AVERAGE  MAXIMUM
 CP2K                                 1  1.0    0.022    0.042   54.353   54.354
 qs_energies                          1  2.0    0.000    0.000   53.054   53.054
 mp2_main                             1  3.0    0.000    0.000   27.287   27.291
 scf_env_do_scf                       1  3.0    0.000    0.000   24.931   24.931
 scf_env_do_scf_inner_loop           10  4.0    0.001    0.001   24.931   24.931
 qs_ks_build_kohn_sham_matrix        11  6.8    0.002    0.003   21.649   21.663
 qs_ks_update_qs_env                 10  5.0    0.000    0.000   20.713   20.726
 rebuild_ks_matrix                   10  6.0    0.000    0.000   20.712   20.725
 mp2_gpw_main                         1  4.0    0.000    0.000   17.451   17.451
 pw_transfer                        228  9.5    0.020    0.026   14.191   14.607
 fft_wrap_pw1pw2                    193 10.6    0.003    0.004   14.001   14.413
 fft_wrap_pw1pw2_200                126 11.7    0.774    0.965   12.994   13.488
 rpa_ri_compute_en                    1  5.0    0.000    0.000   11.540   11.541
 rpa_num_int                          1  6.0    0.000    0.002   11.539   11.539
 fft3d_ps                           193 12.6    4.524    5.592   10.587   11.345
 compute_vec_Sigma_x_minus_vxc_       1  4.0    0.000    0.000    9.820    9.820
 qs_vxc_create                       11  7.8    0.000    0.000    9.108    9.108
 xc_vxc_pw_create                    10  9.0    0.103    0.143    9.108    9.108
 integrate_four_center                1  5.0    0.002    0.004    8.878    8.878
 mp_alltoall_z22v                   193 14.6    4.511    6.309    4.511    6.309
 rs_pw_transfer                     112  9.3    0.003    0.003    5.554    6.062
 mp2_ri_gpw_compute_in                1  5.0    0.000    0.000    4.661    5.906
 dbcsr_multiply_generic             783  9.9    0.040    0.055    4.771    5.791
 compute_3c_overlap_int               1  6.0    1.587    2.099    4.422    5.666
 mp_sum_d                          1069  6.4    3.234    4.661    3.234    4.661
 xc_rho_set_and_dset_create          10 10.0    0.067    0.093    4.003    4.613
 multiply_cannon                    783 10.9    0.105    0.149    3.200    4.540
 qs_rho_update_rho                   11  5.0    0.000    0.000    4.467    4.468
 calculate_rho_elec                  11  6.0    0.101    0.542    4.436    4.437
 GW_postprocessing                    1  7.0    0.000    0.000    4.381    4.381
 compute_self_energy_im_time_gw       1  8.0    0.002    0.003    4.381    4.381
 density_rs2pw                       11  7.0    0.001    0.001    3.985    4.156
 yz_to_x                             97 13.2    0.637    0.724    3.187    4.148
 mp_waitany                        1948 11.3    2.615    3.987    2.615    3.987
 calc_screening_functions             1  6.0    2.129    2.766    3.038    3.948
 mp_sync                             81  8.7    3.180    3.901    3.180    3.901
 prepare_gapw_den                    11  7.8    0.000    0.000    3.595    3.714
 sum_up_and_integrate                11  7.8    0.030    0.046    3.320    3.539
 integrate_v_rspace                  11  8.8    0.041    0.223    3.290    3.512
 integrate_four_center_main           1  6.0    0.000    0.000    0.586    3.393
 integrate_four_center_bin          128  7.0    0.585    3.392    0.585    3.392
 mp_sum_l                          3877 10.9    1.922    3.367    1.922    3.367
 compute_3c_overlap_int_put_dbc   19652  7.0    2.709    3.276    2.709    3.276
 potential_pw2rs                     11  9.8    0.002    0.002    3.219    3.231
 x_to_yz                             96 14.1    0.909    1.254    2.870    3.216
 mp_waitall_1                     43936 13.5    1.691    3.215    1.691    3.215
 multiply_cannon_metrocomm3        8923 11.9    0.012    0.018    1.007    2.923
 multiply_cannon_multrec           8923 11.9    0.834    2.827    1.140    2.850
 rs_pw_transfer_PW2RS_200            23 10.7    1.073    1.445    2.260    2.572
 put_rho0_on_grid                    11  8.8    0.018    0.022    2.336    2.455
 rs_pw_transfer_RS2PW_200            23  9.8    0.921    1.262    2.158    2.437
 multiply_cannon_metrocomm1        8923 11.9    0.008    0.013    0.420    2.398
 compute_self_energy_im_time_gw     238  9.0    0.001    0.001    1.783    2.382
 compute_mat_P_omega                  1  7.0    0.000    0.000    2.344    2.352
 mp_comm_split_direct                 8  6.6    1.313    2.202    1.313    2.202
 integrate_four_center_load           1  6.0    0.000    0.000    1.291    2.194
 hfx_load_balance                     1  7.0    0.000    0.000    1.291    2.194
 rpa_num_int_im_t_alloc_mat_gw        1  7.0    0.000    0.000    0.120    2.177
 allocate_matrices_gw_im_time         1  8.0    0.000    0.000    0.120    2.177
 get_mat_3c_overl_int_gw              1  9.0    0.001    0.001    0.119    2.176
 fill_mat_3c_overl_int_gw             1 10.0    0.000    0.000    0.107    2.164
 cp_fm_copy_general                   2  8.0    0.000    0.000    2.059    2.152
 rpa_num_int_im_t_alloc_mat_24        1  7.0    0.000    0.000    2.059    2.152
 cp_fm_start_copy_general             2  9.0    0.000    0.001    2.058    2.152
 mp_allgather_i                       4 10.0    2.058    2.152    2.058    2.152
 GW3c_fill_mat                        1 11.0    0.041    0.984    0.089    2.145
 hfx_load_balance_range               1  8.0    0.002    0.029    1.239    2.142
 powell_optimize                 341448  7.0    1.516    2.095    1.516    2.095
 create_dbcsr_matrices_im_time        1  5.0    0.001    0.001    1.247    2.091
 pw_gather_p                         97 12.2    1.356    1.828    1.356    1.828
 mp_sum_dm                           72  7.7    0.856    1.742    0.856    1.742
 dbcsr_trace_a_b_d                  498  9.9    0.003    0.030    0.828    1.738
 calculate_vxc_atom                  11  7.8    0.019    0.241    1.724    1.724
 compute_self_energy_im_time_gw     238  9.0    0.001    0.001    0.813    1.723
 integrate_vhg0_rspace               11  7.8    0.067    0.090    1.489    1.574
 mp_sum_dv                           58  8.3    1.004    1.502    1.004    1.502
 calc_pair_dist_radii                 1  6.0    0.539    0.673    1.147    1.489
 pw_scatter_p                        96 13.1    1.242    1.466    1.242    1.466
 gaVxcgb_GC                          10  9.0    0.096    1.435    0.096    1.435
 compute_mat_P_omega_calc_P          14  8.0    0.000    0.000    1.145    1.258
 qs_init_subsys                       1  2.0    0.005    0.005    1.153    1.153
 calculate_rho_atom                  11  8.8    0.282    1.118    0.282    1.118
 -------------------------------------------------------------------------------

 The number of warnings for this run is : 3
 
 -------------------------------------------------------------------------------
  **** **** ******  **  PROGRAM ENDED AT                 2019-05-30 21:56:19.530
 ***** ** ***  *** **   PROGRAM RAN ON                                    tcopt4
 **    ****   ******    PROGRAM RAN BY                                   wilhelm
 ***** **    ** ** **   PROGRAM PROCESS ID                                  8284
  **** **  *******  **  PROGRAM STOPPED IN /data/wilhelm/2_job_test/11_GW100/3_c
                                           alcs/13_N2
