 DBCSR| CPU Multiplication driver                                           BLAS
 DBCSR| Multrec recursion limit                                              512
 DBCSR| Multiplication stack size                                           1000
 DBCSR| Maximum elements for images                                    UNLIMITED
 DBCSR| Multiplicative factor virtual images                                   1
 DBCSR| Use multiplication densification                                       T
 DBCSR| Multiplication size stacks                                             3
 DBCSR| Number of 3D layers                                               SINGLE
 DBCSR| Use MPI memory allocation                                              T
 DBCSR| Use RMA algorithm                                                      F
 DBCSR| Use Communication thread                                               T
 DBCSR| Communication thread load                                             87


  **** **** ******  **  PROGRAM STARTED AT               2019-05-31 02:16:01.638
 ***** ** ***  *** **   PROGRAM STARTED ON                                tcopt4
 **    ****   ******    PROGRAM STARTED BY                               wilhelm
 ***** **    ** ** **   PROGRAM PROCESS ID                                 22019
  **** **  *******  **  PROGRAM STARTED IN /data/wilhelm/2_job_test/11_GW100/3_c
                                           alcs/16_F2

 CP2K| version string:                    CP2K version 7.0 (Development Version)
 CP2K| source code revision number:                                  git:026fb12
 CP2K| cp2kflags: libint fftw3 libxc pexsi elpa=201705 parallel mpi3 scalapack q
 CP2K|            uip libderiv_max_am1=5 libint_max_am=6
 CP2K| is freely available from                            https://www.cp2k.org/
 CP2K| Program compiled at                         Sat May 11 13:15:02 CEST 2019
 CP2K| Program compiled on                                                tcopt4
 CP2K| Program compiled for                            local_valgrind_March_2019
 CP2K| Data directory path              /data/wilhelm/1_git_repository/cp2k/data
 CP2K| Input file name                                                    GW.inp

 GLOBAL| Force Environment number                                              1
 GLOBAL| Basis set file name                              BASIS_def2_QZVP_RI_ALL
 GLOBAL| Potential file name                                           POTENTIAL
 GLOBAL| MM Potential file name                                     MM_POTENTIAL
 GLOBAL| Coordinate file name                                          16_F2.xyz
 GLOBAL| Method name                                                        CP2K
 GLOBAL| Project name                                                   ALL_ELEC
 GLOBAL| Preferred FFT library                                             FFTW3
 GLOBAL| Preferred diagonalization lib.                                       SL
 GLOBAL| Run type                                                         ENERGY
 GLOBAL| All-to-all communication in single precision                          F
 GLOBAL| FFTs using library dependent lengths                                  F
 GLOBAL| Global print level                                               MEDIUM
 GLOBAL| MPI I/O enabled                                                       T
 GLOBAL| Total number of message passing processes                            24
 GLOBAL| Number of threads for this process                                    1
 GLOBAL| This output is from process                                           0
 GLOBAL| CPU model name :  Intel(R) Xeon(R) CPU E5-2697 v3 @ 2.60GHz

 MEMORY| system memory details [Kb]
 MEMORY|                        rank 0           min           max       average
 MEMORY| MemTotal            396954008     396954008     396954008     396954008
 MEMORY| MemFree             220413408     220413408     220413408     220413408
 MEMORY| Buffers                235900        235900        235900        235900
 MEMORY| Cached               14356656      14356656      14356656      14356656
 MEMORY| Slab                   545540        545540        545540        545540
 MEMORY| SReclaimable           406216        406216        406216        406216
 MEMORY| MemLikelyFree       235412180     235412180     235412180     235412180


 *** Fundamental physical constants (SI units) ***

 *** Literature: B. J. Mohr and B. N. Taylor,
 ***             CODATA recommended values of the fundamental physical
 ***             constants: 2006, Web Version 5.1
 ***             http://physics.nist.gov/constants

 Speed of light in vacuum [m/s]                             2.99792458000000E+08
 Magnetic constant or permeability of vacuum [N/A**2]       1.25663706143592E-06
 Electric constant or permittivity of vacuum [F/m]          8.85418781762039E-12
 Planck constant (h) [J*s]                                  6.62606896000000E-34
 Planck constant (h-bar) [J*s]                              1.05457162825177E-34
 Elementary charge [C]                                      1.60217648700000E-19
 Electron mass [kg]                                         9.10938215000000E-31
 Electron g factor [ ]                                     -2.00231930436220E+00
 Proton mass [kg]                                           1.67262163700000E-27
 Fine-structure constant                                    7.29735253760000E-03
 Rydberg constant [1/m]                                     1.09737315685270E+07
 Avogadro constant [1/mol]                                  6.02214179000000E+23
 Boltzmann constant [J/K]                                   1.38065040000000E-23
 Atomic mass unit [kg]                                      1.66053878200000E-27
 Bohr radius [m]                                            5.29177208590000E-11

 *** Conversion factors ***

 [u] -> [a.u.]                                              1.82288848426455E+03
 [Angstrom] -> [Bohr] = [a.u.]                              1.88972613288564E+00
 [a.u.] = [Bohr] -> [Angstrom]                              5.29177208590000E-01
 [a.u.] -> [s]                                              2.41888432650478E-17
 [a.u.] -> [fs]                                             2.41888432650478E-02
 [a.u.] -> [J]                                              4.35974393937059E-18
 [a.u.] -> [N]                                              8.23872205491840E-08
 [a.u.] -> [K]                                              3.15774647902944E+05
 [a.u.] -> [kJ/mol]                                         2.62549961709828E+03
 [a.u.] -> [kcal/mol]                                       6.27509468713739E+02
 [a.u.] -> [Pa]                                             2.94210107994716E+13
 [a.u.] -> [bar]                                            2.94210107994716E+08
 [a.u.] -> [atm]                                            2.90362800883016E+08
 [a.u.] -> [eV]                                             2.72113838565563E+01
 [a.u.] -> [Hz]                                             6.57968392072181E+15
 [a.u.] -> [1/cm] (wave numbers)                            2.19474631370540E+05
 [a.u./Bohr**2] -> [1/cm]                                   5.14048714338585E+03
 

 CELL_TOP| Volume [angstrom^3]:                                         4096.000
 CELL_TOP| Vector a [angstrom    16.000     0.000     0.000    |a| =      16.000
 CELL_TOP| Vector b [angstrom     0.000    16.000     0.000    |b| =      16.000
 CELL_TOP| Vector c [angstrom     0.000     0.000    16.000    |c| =      16.000
 CELL_TOP| Angle (b,c), alpha [degree]:                                   90.000
 CELL_TOP| Angle (a,c), beta  [degree]:                                   90.000
 CELL_TOP| Angle (a,b), gamma [degree]:                                   90.000
 CELL_TOP| Numerically orthorhombic:                                         YES

 GENERATE|  Preliminary Number of Bonds generated:                             0
 GENERATE|  Achieved consistency in connectivity generation.

 CELL| Volume [angstrom^3]:                                             4096.000
 CELL| Vector a [angstrom]:      16.000     0.000     0.000    |a| =      16.000
 CELL| Vector b [angstrom]:       0.000    16.000     0.000    |b| =      16.000
 CELL| Vector c [angstrom]:       0.000     0.000    16.000    |c| =      16.000
 CELL| Angle (b,c), alpha [degree]:                                       90.000
 CELL| Angle (a,c), beta  [degree]:                                       90.000
 CELL| Angle (a,b), gamma [degree]:                                       90.000
 CELL| Numerically orthorhombic:                                             YES

 CELL_REF| Volume [angstrom^3]:                                         4096.000
 CELL_REF| Vector a [angstrom    16.000     0.000     0.000    |a| =      16.000
 CELL_REF| Vector b [angstrom     0.000    16.000     0.000    |b| =      16.000
 CELL_REF| Vector c [angstrom     0.000     0.000    16.000    |c| =      16.000
 CELL_REF| Angle (b,c), alpha [degree]:                                   90.000
 CELL_REF| Angle (a,c), beta  [degree]:                                   90.000
 CELL_REF| Angle (a,b), gamma [degree]:                                   90.000
 CELL_REF| Numerically orthorhombic:                                         YES

 *******************************************************************************
 *******************************************************************************
 **                                                                           **
 **     #####                         ##              ##                      **
 **    ##   ##            ##          ##              ##                      **
 **   ##     ##                       ##            ######                    **
 **   ##     ##  ##   ##  ##   #####  ##  ##   ####   ##    #####    #####    **
 **   ##     ##  ##   ##  ##  ##      ## ##   ##      ##   ##   ##  ##   ##   **
 **   ##  ## ##  ##   ##  ##  ##      ####     ###    ##   ######   ######    **
 **    ##  ###   ##   ##  ##  ##      ## ##      ##   ##   ##       ##        **
 **     #######   #####   ##   #####  ##  ##  ####    ##    #####   ##        **
 **           ##                                                    ##        **
 **                                                                           **
 **                                                ... make the atoms dance   **
 **                                                                           **
 **            Copyright (C) by CP2K developers group (2000 - 2019)           **
 **                                                                           **
 *******************************************************************************

 DFT| Spin restricted Kohn-Sham (RKS) calculation                            RKS
 DFT| Multiplicity                                                             1
 DFT| Number of spin states                                                    1
 DFT| Charge                                                                   0
 DFT| Self-interaction correction (SIC)                                       NO
 DFT| Cutoffs: density                                              1.000000E-10
 DFT|          gradient                                             1.000000E-10
 DFT|          tau                                                  1.000000E-10
 DFT|          cutoff_smoothing_range                               0.000000E+00
 DFT| XC density smoothing                                                  NONE
 DFT| XC derivatives                                                          PW
 FUNCTIONAL| ROUTINE=NEW
 FUNCTIONAL| PBE:
 FUNCTIONAL| J.P.Perdew, K.Burke, M.Ernzerhof, Phys. Rev. Letter, vol. 77, n 18,
 FUNCTIONAL|  pp. 3865-3868, (1996){spin unpolarized}                           

 QS| Method:                                                                GAPW
 QS| Density plane wave grid type                        NON-SPHERICAL FULLSPACE
 QS| Number of grid levels:                                                    4
 QS| Density cutoff [a.u.]:                                                200.0
 QS| Multi grid cutoff [a.u.]: 1) grid level                               200.0
 QS|                           2) grid level                                66.7
 QS|                           3) grid level                                22.2
 QS|                           4) grid level                                 7.4
 QS| Grid level progression factor:                                          3.0
 QS| Relative density cutoff [a.u.]:                                        25.0
 QS| Consistent realspace mapping and integration 
 QS| Interaction thresholds: eps_pgf_orb:                                1.0E-05
 QS|                         eps_filter_matrix:                          0.0E+00
 QS|                         eps_core_charge:                            1.0E-12
 QS|                         eps_rho_gspace:                             1.0E-10
 QS|                         eps_rho_rspace:                             1.0E-10
 QS|                         eps_gvg_rspace:                             1.0E-05
 QS|                         eps_ppl:                                    1.0E-02
 QS|                         eps_ppnl:                                   1.0E-07
 QS| GAPW|                   eps_fit:                                    1.0E-04
 QS| GAPW|                   eps_iso:                                    1.0E-12
 QS| GAPW|                   eps_svd:                                    1.0E-08
 QS| GAPW|                   eps_cpc:                                    1.0E-10
 QS| GAPW|   atom-r-grid: quadrature:                 GC_LOG                        
 QS| GAPW|      atom-s-grid:  max l :                                          8
 QS| GAPW|      max_l_rho0 :                                                   2


 ATOMIC KIND INFORMATION

  1. Atomic kind: F                                     Number of atoms:       2

     Orbital Basis Set                                                 def2-QZVP

       Number of orbital shell sets:                                          17
       Number of orbital shells:                                              17
       Number of primitive Cartesian functions:                               29
       Number of Cartesian basis functions:                                   72
       Number of spherical basis functions:                                   57
       Norm type:                                                              2

       Normalised Cartesian orbitals:

                        Set   Shell   Orbital            Exponent    Coefficient

                          1       1    1s           132535.973450       0.386108
                                                     19758.112588       0.724649
                                                      4485.199695       1.250455
                                                      1273.815102       2.015188
                                                       418.938312       3.040568
                                                       152.557220       4.212686
                                                        59.821525       5.009443
                                                        24.819077       4.546938

                          2       1    1s              100.744467       2.325033
                                                        30.103728       8.414408

                          3       1    1s               10.814283       4.250191

                          4       1    1s                4.817289       2.317459

                          5       1    1s                1.655933       1.040381

                          6       1    1s                0.648935       0.515301

                          7       1    1s                0.247781       0.250300

                          8       1    1px             240.966541       3.491668
                                                        57.020700       4.618861
                                                        18.126952       5.179649
                                                         6.645740       4.786262
                                                         2.637572       3.245784
                          8       1    1py             240.966541       3.491668
                                                        57.020700       4.618861
                                                        18.126952       5.179649
                                                         6.645740       4.786262
                                                         2.637572       3.245784
                          8       1    1pz             240.966541       3.491668
                                                        57.020700       4.618861
                                                        18.126952       5.179649
                                                         6.645740       4.786262
                                                         2.637572       3.245784

                          9       1    1px               1.063822       1.540019
                          9       1    1py               1.063822       1.540019
                          9       1    1pz               1.063822       1.540019

                         10       1    1px               0.419326       0.480983
                         10       1    1py               0.419326       0.480983
                         10       1    1pz               0.419326       0.480983

                         11       1    1px               0.157476       0.141403
                         11       1    1py               0.157476       0.141403
                         11       1    1pz               0.157476       0.141403

                         12       1    1dx2              5.014000      27.652349
                         12       1    1dxy              5.014000      47.895274
                         12       1    1dxz              5.014000      47.895274
                         12       1    1dy2              5.014000      27.652349
                         12       1    1dyz              5.014000      47.895274
                         12       1    1dz2              5.014000      27.652349

                         13       1    1dx2              1.725000       4.273566
                         13       1    1dxy              1.725000       7.402033
                         13       1    1dxz              1.725000       7.402033
                         13       1    1dy2              1.725000       4.273566
                         13       1    1dyz              1.725000       7.402033
                         13       1    1dz2              1.725000       4.273566

                         14       1    1dx2              0.586000       0.645997
                         14       1    1dxy              0.586000       1.118899
                         14       1    1dxz              0.586000       1.118899
                         14       1    1dy2              0.586000       0.645997
                         14       1    1dyz              0.586000       1.118899
                         14       1    1dz2              0.586000       0.645997

                         15       1    1fx3              3.562000      25.660538
                         15       1    1fx2y             3.562000      57.378707
                         15       1    1fx2z             3.562000      57.378707
                         15       1    1fxy2             3.562000      57.378707
                         15       1    1fxyz             3.562000      99.382837
                         15       1    1fxz2             3.562000      57.378707
                         15       1    1fy3              3.562000      25.660538
                         15       1    1fy2z             3.562000      57.378707
                         15       1    1fyz2             3.562000      57.378707
                         15       1    1fz3              3.562000      25.660538

                         16       1    1fx3              1.148000       2.008277
                         16       1    1fx2y             1.148000       4.490645
                         16       1    1fx2z             1.148000       4.490645
                         16       1    1fxy2             1.148000       4.490645
                         16       1    1fxyz             1.148000       7.778025
                         16       1    1fxz2             1.148000       4.490645
                         16       1    1fy3              1.148000       2.008277
                         16       1    1fy2z             1.148000       4.490645
                         16       1    1fyz2             1.148000       4.490645
                         16       1    1fz3              1.148000       2.008277

                         17       1    1gx4              2.376000      12.023008
                         17       1    1gx3y             2.376000      31.809888
                         17       1    1gx3z             2.376000      31.809888
                         17       1    1gx2y2            2.376000      41.066389
                         17       1    1gx2yz            2.376000      71.129073
                         17       1    1gx2z2            2.376000      41.066389
                         17       1    1gxy3             2.376000      31.809888
                         17       1    1gxy2z            2.376000      71.129073
                         17       1    1gxyz2            2.376000      71.129073
                         17       1    1gxz3             2.376000      31.809888
                         17       1    1gy4              2.376000      12.023008
                         17       1    1gy3z             2.376000      31.809888
                         17       1    1gy2z2            2.376000      41.066389
                         17       1    1gyz3             2.376000      31.809888
                         17       1    1gz4              2.376000      12.023008

     RI Auxiliary Basis Set                                                RI-5Z

       Number of orbital shell sets:                                          39
       Number of orbital shells:                                              39
       Number of primitive Cartesian functions:                               39
       Number of Cartesian basis functions:                                  287
       Number of spherical basis functions:                                  193
       Norm type:                                                              2

       Normalised Cartesian orbitals:

                        Set   Shell   Orbital            Exponent    Coefficient

                          1       1    1s              645.424000      91.262829

                          2       1    1s              138.618000      28.792198

                          3       1    1s               38.729500      11.064748

                          4       1    1s               21.723600       7.171482

                          5       1    1s                7.480350       3.223677

                          6       1    1s                4.284400       2.122402

                          7       1    1s                2.601990       1.460123

                          8       1    1s                1.340780       0.888031

                          9       1    1s                0.603875       0.488225

                         10       1    1s                0.299915       0.288841

                         11       1    1px             118.066000     554.748517
                         11       1    1py             118.066000     554.748517
                         11       1    1pz             118.066000     554.748517

                         12       1    1px              32.033700     108.629797
                         12       1    1py              32.033700     108.629797
                         12       1    1pz              32.033700     108.629797

                         13       1    1px              13.592500      37.201827
                         13       1    1py              13.592500      37.201827
                         13       1    1pz              13.592500      37.201827

                         14       1    1px               6.289910      14.198603
                         14       1    1py               6.289910      14.198603
                         14       1    1pz               6.289910      14.198603

                         15       1    1px               3.490790       6.801344
                         15       1    1py               3.490790       6.801344
                         15       1    1pz               3.490790       6.801344

                         16       1    1px               1.639320       2.644051
                         16       1    1py               1.639320       2.644051
                         16       1    1pz               1.639320       2.644051

                         17       1    1px               0.880017       1.214937
                         17       1    1py               0.880017       1.214937
                         17       1    1pz               0.880017       1.214937

                         18       1    1px               0.533003       0.649161
                         18       1    1py               0.533003       0.649161
                         18       1    1pz               0.533003       0.649161

                         19       1    1dx2             27.767600     552.842674
                         19       1    1dxy             27.767600     957.551601
                         19       1    1dxz             27.767600     957.551601
                         19       1    1dy2             27.767600     552.842674
                         19       1    1dyz             27.767600     957.551601
                         19       1    1dz2             27.767600     552.842674

                         20       1    1dx2              8.880760      75.196424
                         20       1    1dxy              8.880760     130.244027
                         20       1    1dxz              8.880760     130.244027
                         20       1    1dy2              8.880760      75.196424
                         20       1    1dyz              8.880760     130.244027
                         20       1    1dz2              8.880760      75.196424

                         21       1    1dx2              5.495020      32.460536
                         21       1    1dxy              5.495020      56.223298
                         21       1    1dxz              5.495020      56.223298
                         21       1    1dy2              5.495020      32.460536
                         21       1    1dyz              5.495020      56.223298
                         21       1    1dz2              5.495020      32.460536

                         22       1    1dx2              2.971120      11.066742
                         22       1    1dxy              2.971120      19.168160
                         22       1    1dxz              2.971120      19.168160
                         22       1    1dy2              2.971120      11.066742
                         22       1    1dyz              2.971120      19.168160
                         22       1    1dz2              2.971120      11.066742

                         23       1    1dx2              1.819720       4.692642
                         23       1    1dxy              1.819720       8.127895
                         23       1    1dxz              1.819720       8.127895
                         23       1    1dy2              1.819720       4.692642
                         23       1    1dyz              1.819720       8.127895
                         23       1    1dz2              1.819720       4.692642

                         24       1    1dx2              0.890528       1.343670
                         24       1    1dxy              0.890528       2.327305
                         24       1    1dxz              0.890528       2.327305
                         24       1    1dy2              0.890528       1.343670
                         24       1    1dyz              0.890528       2.327305
                         24       1    1dz2              0.890528       1.343670

                         25       1    1dx2              0.367580       0.285611
                         25       1    1dxy              0.367580       0.494693
                         25       1    1dxz              0.367580       0.494693
                         25       1    1dy2              0.367580       0.285611
                         25       1    1dyz              0.367580       0.494693
                         25       1    1dz2              0.367580       0.285611

                         26       1    1fx3             18.500300    1044.976886
                         26       1    1fx2y            18.500300    2336.639352
                         26       1    1fx2z            18.500300    2336.639352
                         26       1    1fxy2            18.500300    2336.639352
                         26       1    1fxyz            18.500300    4047.178077
                         26       1    1fxz2            18.500300    2336.639352
                         26       1    1fy3             18.500300    1044.976886
                         26       1    1fy2z            18.500300    2336.639352
                         26       1    1fyz2            18.500300    2336.639352
                         26       1    1fz3             18.500300    1044.976886

                         27       1    1fx3              8.608610     186.876105
                         27       1    1fx2y             8.608610     417.867675
                         27       1    1fx2z             8.608610     417.867675
                         27       1    1fxy2             8.608610     417.867675
                         27       1    1fxyz             8.608610     723.768044
                         27       1    1fxz2             8.608610     417.867675
                         27       1    1fy3              8.608610     186.876105
                         27       1    1fy2z             8.608610     417.867675
                         27       1    1fyz2             8.608610     417.867675
                         27       1    1fz3              8.608610     186.876105

                         28       1    1fx3              4.943880      53.654638
                         28       1    1fx2y             4.943880     119.975419
                         28       1    1fx2z             4.943880     119.975419
                         28       1    1fxy2             4.943880     119.975419
                         28       1    1fxyz             4.943880     207.803521
                         28       1    1fxz2             4.943880     119.975419
                         28       1    1fy3              4.943880      53.654638
                         28       1    1fy2z             4.943880     119.975419
                         28       1    1fyz2             4.943880     119.975419
                         28       1    1fz3              4.943880      53.654638

                         29       1    1fx3              2.814490      15.104411
                         29       1    1fx2y             2.814490      33.774490
                         29       1    1fx2z             2.814490      33.774490
                         29       1    1fxy2             2.814490      33.774490
                         29       1    1fxyz             2.814490      58.499133
                         29       1    1fxz2             2.814490      33.774490
                         29       1    1fy3              2.814490      15.104411
                         29       1    1fy2z             2.814490      33.774490
                         29       1    1fyz2             2.814490      33.774490
                         29       1    1fz3              2.814490      15.104411

                         30       1    1fx3              1.581520       4.129263
                         30       1    1fx2y             1.581520       9.233312
                         30       1    1fx2z             1.581520       9.233312
                         30       1    1fxy2             1.581520       9.233312
                         30       1    1fxyz             1.581520      15.992565
                         30       1    1fxz2             1.581520       9.233312
                         30       1    1fy3              1.581520       4.129263
                         30       1    1fy2z             1.581520       9.233312
                         30       1    1fyz2             1.581520       9.233312
                         30       1    1fz3              1.581520       4.129263

                         31       1    1fx3              0.809465       0.914956
                         31       1    1fx2y             0.809465       2.045903
                         31       1    1fx2z             0.809465       2.045903
                         31       1    1fxy2             0.809465       2.045903
                         31       1    1fxyz             0.809465       3.543609
                         31       1    1fxz2             0.809465       2.045903
                         31       1    1fy3              0.809465       0.914956
                         31       1    1fy2z             0.809465       2.045903
                         31       1    1fyz2             0.809465       2.045903
                         31       1    1fz3              0.809465       0.914956

                         32       1    1gx4              9.163700     492.187181
                         32       1    1gx3y             9.163700    1302.204879
                         32       1    1gx3z             9.163700    1302.204879
                         32       1    1gx2y2            9.163700    1681.139270
                         32       1    1gx2yz            9.163700    2911.818631
                         32       1    1gx2z2            9.163700    1681.139270
                         32       1    1gxy3             9.163700    1302.204879
                         32       1    1gxy2z            9.163700    2911.818631
                         32       1    1gxyz2            9.163700    2911.818631
                         32       1    1gxz3             9.163700    1302.204879
                         32       1    1gy4              9.163700     492.187181
                         32       1    1gy3z             9.163700    1302.204879
                         32       1    1gy2z2            9.163700    1681.139270
                         32       1    1gyz3             9.163700    1302.204879
                         32       1    1gz4              9.163700     492.187181

                         33       1    1gx4              4.936690      89.822271
                         33       1    1gx3y             4.936690     237.647391
                         33       1    1gx3z             4.936690     237.647391
                         33       1    1gx2y2            4.936690     306.801463
                         33       1    1gx2yz            4.936690     531.395721
                         33       1    1gx2z2            4.936690     306.801463
                         33       1    1gxy3             4.936690     237.647391
                         33       1    1gxy2z            4.936690     531.395721
                         33       1    1gxyz2            4.936690     531.395721
                         33       1    1gxz3             4.936690     237.647391
                         33       1    1gy4              4.936690      89.822271
                         33       1    1gy3z             4.936690     237.647391
                         33       1    1gy2z2            4.936690     306.801463
                         33       1    1gyz3             4.936690     237.647391
                         33       1    1gz4              4.936690      89.822271

                         34       1    1gx4              2.714870      17.347835
                         34       1    1gx3y             2.714870      45.898057
                         34       1    1gx3z             2.714870      45.898057
                         34       1    1gx2y2            2.714870      59.254137
                         34       1    1gx2yz            2.714870     102.631176
                         34       1    1gx2z2            2.714870      59.254137
                         34       1    1gxy3             2.714870      45.898057
                         34       1    1gxy2z            2.714870     102.631176
                         34       1    1gxyz2            2.714870     102.631176
                         34       1    1gxz3             2.714870      45.898057
                         34       1    1gy4              2.714870      17.347835
                         34       1    1gy3z             2.714870      45.898057
                         34       1    1gy2z2            2.714870      59.254137
                         34       1    1gyz3             2.714870      45.898057
                         34       1    1gz4              2.714870      17.347835

                         35       1    1gx4              1.319190       2.383859
                         35       1    1gx3y             1.319190       6.307099
                         35       1    1gx3z             1.319190       6.307099
                         35       1    1gx2y2            1.319190       8.142430
                         35       1    1gx2yz            1.319190      14.103102
                         35       1    1gx2z2            1.319190       8.142430
                         35       1    1gxy3             1.319190       6.307099
                         35       1    1gxy2z            1.319190      14.103102
                         35       1    1gxyz2            1.319190      14.103102
                         35       1    1gxz3             1.319190       6.307099
                         35       1    1gy4              1.319190       2.383859
                         35       1    1gy3z             1.319190       6.307099
                         35       1    1gy2z2            1.319190       8.142430
                         35       1    1gyz3             1.319190       6.307099
                         35       1    1gz4              1.319190       2.383859

                         36       1    1hx5              7.104650     434.368079
                         36       1    1hx4y             7.104650    1303.104237
                         36       1    1hx4z             7.104650    1303.104237
                         36       1    1hx3y2            7.104650    1990.524601
                         36       1    1hx3yz            7.104650    3447.689742
                         36       1    1hx3z2            7.104650    1990.524601
                         36       1    1hx2y3            7.104650    1990.524601
                         36       1    1hx2y2z           7.104650    4450.948318
                         36       1    1hx2yz2           7.104650    4450.948318
                         36       1    1hx2z3            7.104650    1990.524601
                         36       1    1hxy4             7.104650    1303.104237
                         36       1    1hxy3z            7.104650    3447.689742
                         36       1    1hxy2z2           7.104650    4450.948318
                         36       1    1hxyz3            7.104650    3447.689742
                         36       1    1hxz4             7.104650    1303.104237
                         36       1    1hy5              7.104650     434.368079
                         36       1    1hy4z             7.104650    1303.104237
                         36       1    1hy3z2            7.104650    1990.524601
                         36       1    1hy2z3            7.104650    1990.524601
                         36       1    1hyz4             7.104650    1303.104237
                         36       1    1hz5              7.104650     434.368079

                         37       1    1hx5              4.172870      77.047304
                         37       1    1hx4y             4.172870     231.141911
                         37       1    1hx4z             4.172870     231.141911
                         37       1    1hx3y2            4.172870     353.075102
                         37       1    1hx3yz            4.172870     611.544015
                         37       1    1hx3z2            4.172870     353.075102
                         37       1    1hx2y3            4.172870     353.075102
                         37       1    1hx2y2z           4.172870     789.499928
                         37       1    1hx2yz2           4.172870     789.499928
                         37       1    1hx2z3            4.172870     353.075102
                         37       1    1hxy4             4.172870     231.141911
                         37       1    1hxy3z            4.172870     611.544015
                         37       1    1hxy2z2           4.172870     789.499928
                         37       1    1hxyz3            4.172870     611.544015
                         37       1    1hxz4             4.172870     231.141911
                         37       1    1hy5              4.172870      77.047304
                         37       1    1hy4z             4.172870     231.141911
                         37       1    1hy3z2            4.172870     353.075102
                         37       1    1hy2z3            4.172870     353.075102
                         37       1    1hyz4             4.172870     231.141911
                         37       1    1hz5              4.172870      77.047304

                         38       1    1hx5              2.200100       9.622370
                         38       1    1hx4y             2.200100      28.867109
                         38       1    1hx4z             2.200100      28.867109
                         38       1    1hx3y2            2.200100      44.095237
                         38       1    1hx3yz            2.200100      76.375191
                         38       1    1hx3z2            2.200100      44.095237
                         38       1    1hx2y3            2.200100      44.095237
                         38       1    1hx2y2z           2.200100      98.599948
                         38       1    1hx2yz2           2.200100      98.599948
                         38       1    1hx2z3            2.200100      44.095237
                         38       1    1hxy4             2.200100      28.867109
                         38       1    1hxy3z            2.200100      76.375191
                         38       1    1hxy2z2           2.200100      98.599948
                         38       1    1hxyz3            2.200100      76.375191
                         38       1    1hxz4             2.200100      28.867109
                         38       1    1hy5              2.200100       9.622370
                         38       1    1hy4z             2.200100      28.867109
                         38       1    1hy3z2            2.200100      44.095237
                         38       1    1hy2z3            2.200100      44.095237
                         38       1    1hyz4             2.200100      28.867109
                         38       1    1hz5              2.200100       9.622370

                         39       1    1ix6              4.223720      99.319499
                         39       1    1ix5y             4.223720     329.405512
                         39       1    1ix5z             4.223720     329.405512
                         39       1    1ix4y2            4.223720     570.547084
                         39       1    1ix4yz            4.223720     988.216537
                         39       1    1ix4z2            4.223720     570.547084
                         39       1    1ix3y3            4.223720     675.080413
                         39       1    1ix3y2z           4.223720    1509.525694
                         39       1    1ix3yz2           4.223720    1509.525694
                         39       1    1ix3z3            4.223720     675.080413
                         39       1    1ix2y4            4.223720     570.547084
                         39       1    1ix2y3z           4.223720    1509.525694
                         39       1    1ix2y2z2          4.223720    1948.789292
                         39       1    1ix2yz3           4.223720    1509.525694
                         39       1    1ix2z4            4.223720     570.547084
                         39       1    1ixy5             4.223720     329.405512
                         39       1    1ixy4z            4.223720     988.216537
                         39       1    1ixy3z2           4.223720    1509.525694
                         39       1    1ixy2z3           4.223720    1509.525694
                         39       1    1ixyz4            4.223720     988.216537
                         39       1    1ixz5             4.223720     329.405512
                         39       1    1iy6              4.223720      99.319499
                         39       1    1iy5z             4.223720     329.405512
                         39       1    1iy4z2            4.223720     570.547084
                         39       1    1iy3z3            4.223720     675.080413
                         39       1    1iy2z4            4.223720     570.547084
                         39       1    1iyz5             4.223720     329.405512
                         39       1    1iz6              4.223720      99.319499

     The atoms of this atomic kind are PAW atoms (GAPW):
       Hard Gaussian function radius:                                      1.512
       Rho0 radius:                                                        1.512
       Maximum GTO radius used for PAW projector construction:            24.566

     GAPW Soft Basis Set                                          def2-QZVP_soft

       Number of orbital shell sets:                                          17
       Number of orbital shells:                                              17
       Number of primitive Cartesian functions:                               12
       Number of Cartesian basis functions:                                   72
       Number of spherical basis functions:                                   57
       Norm type:                                                              2

       Normalised Cartesian orbitals:

                        Set   Shell   Orbital            Exponent    Coefficient

                          1       1    1s         

                          2       1    1s         

                          3       1    1s         

                          4       1    1s         

                          5       1    1s                1.655933       1.040381

                          6       1    1s                0.648935       0.515301

                          7       1    1s                0.247781       0.250300

                          8       1    1px               2.637572       3.245784
                          8       1    1py               2.637572       3.245784
                          8       1    1pz               2.637572       3.245784

                          9       1    1px               1.063822       1.540019
                          9       1    1py               1.063822       1.540019
                          9       1    1pz               1.063822       1.540019

                         10       1    1px               0.419326       0.480983
                         10       1    1py               0.419326       0.480983
                         10       1    1pz               0.419326       0.480983

                         11       1    1px               0.157476       0.141403
                         11       1    1py               0.157476       0.141403
                         11       1    1pz               0.157476       0.141403

                         12       1    1dx2       
                         12       1    1dxy       
                         12       1    1dxz       
                         12       1    1dy2       
                         12       1    1dyz       
                         12       1    1dz2       

                         13       1    1dx2              1.725000       4.273566
                         13       1    1dxy              1.725000       7.402033
                         13       1    1dxz              1.725000       7.402033
                         13       1    1dy2              1.725000       4.273566
                         13       1    1dyz              1.725000       7.402033
                         13       1    1dz2              1.725000       4.273566

                         14       1    1dx2              0.586000       0.645997
                         14       1    1dxy              0.586000       1.118899
                         14       1    1dxz              0.586000       1.118899
                         14       1    1dy2              0.586000       0.645997
                         14       1    1dyz              0.586000       1.118899
                         14       1    1dz2              0.586000       0.645997

                         15       1    1fx3              3.562000      25.660538
                         15       1    1fx2y             3.562000      57.378707
                         15       1    1fx2z             3.562000      57.378707
                         15       1    1fxy2             3.562000      57.378707
                         15       1    1fxyz             3.562000      99.382837
                         15       1    1fxz2             3.562000      57.378707
                         15       1    1fy3              3.562000      25.660538
                         15       1    1fy2z             3.562000      57.378707
                         15       1    1fyz2             3.562000      57.378707
                         15       1    1fz3              3.562000      25.660538

                         16       1    1fx3              1.148000       2.008277
                         16       1    1fx2y             1.148000       4.490645
                         16       1    1fx2z             1.148000       4.490645
                         16       1    1fxy2             1.148000       4.490645
                         16       1    1fxyz             1.148000       7.778025
                         16       1    1fxz2             1.148000       4.490645
                         16       1    1fy3              1.148000       2.008277
                         16       1    1fy2z             1.148000       4.490645
                         16       1    1fyz2             1.148000       4.490645
                         16       1    1fz3              1.148000       2.008277

                         17       1    1gx4              2.376000      12.023008
                         17       1    1gx3y             2.376000      31.809888
                         17       1    1gx3z             2.376000      31.809888
                         17       1    1gx2y2            2.376000      41.066389
                         17       1    1gx2yz            2.376000      71.129073
                         17       1    1gx2z2            2.376000      41.066389
                         17       1    1gxy3             2.376000      31.809888
                         17       1    1gxy2z            2.376000      71.129073
                         17       1    1gxyz2            2.376000      71.129073
                         17       1    1gxz3             2.376000      31.809888
                         17       1    1gy4              2.376000      12.023008
                         17       1    1gy3z             2.376000      31.809888
                         17       1    1gy2z2            2.376000      41.066389
                         17       1    1gyz3             2.376000      31.809888
                         17       1    1gz4              2.376000      12.023008

     AE Potential information for                                            ALL

       Description:                                       All-electron potential
                                          Krack, Parrinello, PCCP 2, 2105 (2000)

       Gaussian exponent of the core charge distribution:              10.470541
       Electronic configuration (s p d ...):                           4   5   0


 MOLECULE KIND INFORMATION


 All atoms are their own molecule, skipping detailed information


 TOTAL NUMBERS AND MAXIMUM NUMBERS

  Total number of            - Atomic kinds:                                   1
                             - Atoms:                                          2
                             - Shell sets:                                    34
                             - Shells:                                        34
                             - Primitive Cartesian functions:                 58
                             - Cartesian basis functions:                    144
                             - Spherical basis functions:                    114

  Maximum angular momentum of the orbital basis functions:                     4


 MODULE QUICKSTEP:  ATOMIC COORDINATES IN angstrom

  Atom  Kind  Element       X           Y           Z          Z(eff)       Mass

       1     1 F    9    8.000000    8.000000    7.294050      9.00      18.9984
       2     1 F    9    8.000000    8.000000    8.705950      9.00      18.9984




 SCF PARAMETERS         Density guess:                                   RESTART
                        --------------------------------------------------------
                        max_scf:                                             200
                        max_scf_history:                                       0
                        max_diis:                                              4
                        --------------------------------------------------------
                        eps_scf:                                        1.00E-06
                        eps_scf_history:                                0.00E+00
                        eps_diis:                                       1.00E-01
                        eps_eigval:                                     1.00E-05
                        --------------------------------------------------------
                        level_shift [a.u.]:                                 0.00
                        --------------------------------------------------------
                        Mixing method:                           DIRECT_P_MIXING
                        --------------------------------------------------------
                        No outer SCF

 PW_GRID| Information for grid number                                          1
 PW_GRID| Grid distributed over                                    24 processors
 PW_GRID| Real space group dimensions                                    24    1
 PW_GRID| the grid is blocked:                                                NO
 PW_GRID| Cutoff [a.u.]                                                    400.0
 PW_GRID| spherical cutoff:                                                   NO
 PW_GRID|   Bounds   1           -144     143                Points:         288
 PW_GRID|   Bounds   2           -144     143                Points:         288
 PW_GRID|   Bounds   3           -144     143                Points:         288
 PW_GRID| Volume element (a.u.^3)  0.1157E-02     Volume (a.u.^3)     27641.1785
 PW_GRID| Grid span                                                    FULLSPACE
 PW_GRID|   Distribution                         Average         Max         Min
 PW_GRID|   G-Vectors                           995328.0      995328      995328
 PW_GRID|   G-Rays                                3456.0        3456        3456
 PW_GRID|   Real Space Points                   995328.0      995328      995328

 PW_GRID| Information for grid number                                          2
 PW_GRID| Grid distributed over                                    24 processors
 PW_GRID| Real space group dimensions                                    24    1
 PW_GRID| the grid is blocked:                                                NO
 PW_GRID| Cutoff [a.u.]                                                    200.0
 PW_GRID| spherical cutoff:                                                   NO
 PW_GRID|   Bounds   1           -100      99                Points:         200
 PW_GRID|   Bounds   2           -100      99                Points:         200
 PW_GRID|   Bounds   3           -100      99                Points:         200
 PW_GRID| Volume element (a.u.^3)  0.3455E-02     Volume (a.u.^3)     27641.1785
 PW_GRID| Grid span                                                    FULLSPACE
 PW_GRID|   Distribution                         Average         Max         Min
 PW_GRID|   G-Vectors                           333333.3      333600      333200
 PW_GRID|   G-Rays                                1666.7        1668        1666
 PW_GRID|   Real Space Points                   333333.3      360000      320000

 PW_GRID| Information for grid number                                          3
 PW_GRID| Grid distributed over                                    24 processors
 PW_GRID| Real space group dimensions                                    24    1
 PW_GRID| the grid is blocked:                                                NO
 PW_GRID| Cutoff [a.u.]                                                     66.7
 PW_GRID| spherical cutoff:                                                   NO
 PW_GRID|   Bounds   1            -60      59                Points:         120
 PW_GRID|   Bounds   2            -60      59                Points:         120
 PW_GRID|   Bounds   3            -60      59                Points:         120
 PW_GRID| Volume element (a.u.^3)  0.1600E-01     Volume (a.u.^3)     27641.1785
 PW_GRID| Grid span                                                    FULLSPACE
 PW_GRID|   Distribution                         Average         Max         Min
 PW_GRID|   G-Vectors                            72000.0       72360       71760
 PW_GRID|   G-Rays                                 600.0         603         598
 PW_GRID|   Real Space Points                    72000.0       72000       72000

 PW_GRID| Information for grid number                                          4
 PW_GRID| Grid distributed over                                    24 processors
 PW_GRID| Real space group dimensions                                    24    1
 PW_GRID| the grid is blocked:                                                NO
 PW_GRID| Cutoff [a.u.]                                                     22.2
 PW_GRID| spherical cutoff:                                                   NO
 PW_GRID|   Bounds   1            -36      35                Points:          72
 PW_GRID|   Bounds   2            -36      35                Points:          72
 PW_GRID|   Bounds   3            -36      35                Points:          72
 PW_GRID| Volume element (a.u.^3)  0.7406E-01     Volume (a.u.^3)     27641.1785
 PW_GRID| Grid span                                                    FULLSPACE
 PW_GRID|   Distribution                         Average         Max         Min
 PW_GRID|   G-Vectors                            15552.0       15768       15408
 PW_GRID|   G-Rays                                 216.0         219         214
 PW_GRID|   Real Space Points                    15552.0       15552       15552

 PW_GRID| Information for grid number                                          5
 PW_GRID| Grid distributed over                                    24 processors
 PW_GRID| Real space group dimensions                                    24    1
 PW_GRID| the grid is blocked:                                                NO
 PW_GRID| Cutoff [a.u.]                                                      7.4
 PW_GRID| spherical cutoff:                                                   NO
 PW_GRID|   Bounds   1            -20      19                Points:          40
 PW_GRID|   Bounds   2            -20      19                Points:          40
 PW_GRID|   Bounds   3            -20      19                Points:          40
 PW_GRID| Volume element (a.u.^3)  0.4319         Volume (a.u.^3)     27641.1785
 PW_GRID| Grid span                                                    FULLSPACE
 PW_GRID|   Distribution                         Average         Max         Min
 PW_GRID|   G-Vectors                             2666.7        2720        2640
 PW_GRID|   G-Rays                                  66.7          68          66
 PW_GRID|   Real Space Points                     2666.7        3200        1600

 POISSON| Solver                                          Martyna-Tuckerman (MT)
 POISSON| MT| Alpha                                                        7.000
 POISSON| MT| Relative cutoff                                                2.0
 POISSON| Periodicity                                                       NONE

 RS_GRID| Information for grid number                                          2
 RS_GRID|   Bounds   1           -100      99                Points:         200
 RS_GRID|   Bounds   2           -100      99                Points:         200
 RS_GRID|   Bounds   3           -100      99                Points:         200
 RS_GRID| Real space distribution over                                  4 groups
 RS_GRID| Real space distribution along direction                              2
 RS_GRID| Border size                                                         24
 RS_GRID| Real space distribution over                                  6 groups
 RS_GRID| Real space distribution along direction                              3
 RS_GRID| Border size                                                         24
 RS_GRID|   Distribution                         Average         Max         Min
 RS_GRID|   Planes                                  98.0          98          98
 RS_GRID|   Distribution                         Average         Max         Min
 RS_GRID|   Planes                                  81.3          82          81

 RS_GRID| Information for grid number                                          3
 RS_GRID|   Bounds   1            -60      59                Points:         120
 RS_GRID|   Bounds   2            -60      59                Points:         120
 RS_GRID|   Bounds   3            -60      59                Points:         120
 RS_GRID| Real space distribution over                                  4 groups
 RS_GRID| Real space distribution along direction                              2
 RS_GRID| Border size                                                         24
 RS_GRID| Real space distribution over                                  6 groups
 RS_GRID| Real space distribution along direction                              3
 RS_GRID| Border size                                                         24
 RS_GRID|   Distribution                         Average         Max         Min
 RS_GRID|   Planes                                  78.0          78          78
 RS_GRID|   Distribution                         Average         Max         Min
 RS_GRID|   Planes                                  68.0          68          68

 RS_GRID| Information for grid number                                          4
 RS_GRID|   Bounds   1            -36      35                Points:          72
 RS_GRID|   Bounds   2            -36      35                Points:          72
 RS_GRID|   Bounds   3            -36      35                Points:          72
 RS_GRID| Real space fully replicated
 RS_GRID| Group size                                                           1

 RS_GRID| Information for grid number                                          5
 RS_GRID|   Bounds   1            -20      19                Points:          40
 RS_GRID|   Bounds   2            -20      19                Points:          40
 RS_GRID|   Bounds   3            -20      19                Points:          40
 RS_GRID| Real space fully replicated
 RS_GRID| Group size                                                           1
 
 RI-RPA| using GPW style
 

  HFX_INFO| Replica ID:                                                        1
  HFX_INFO| EPS_SCHWARZ:                                                 2.0E-17
  HFX_INFO| EPS_SCHWARZ_FORCES                                           1.0E-06
  HFX_INFO| EPS_STORAGE_SCALING:                                         1.0E+00
  HFX_INFO| NBINS:                                                            64
  HFX_INFO| BLOCK_SIZE:                                                        1
  HFX_INFO| FRACTION:                                               1.0000000000
  HFX_INFO| Interaction Potential:                                       COULOMB
  HFX_INFO| Number of periodic shells considered:                           NONE
  HFX_INFO| Number of periodic cells considered:                            NONE


 Number of electrons:                                                         18
 Number of occupied orbitals:                                                  9
 Number of molecular orbitals:                                                 9

 Number of orbital functions:                                                114
 Number of independent orbital functions:                                    114

 Extrapolation method: initial_guess

 *** WARNING in qs_initial_guess.F:267 :: User requested to restart the   ***
 *** wavefunction from the file named: ALL_ELEC-RESTART.wfn. This file    ***
 *** does not exist. Please check the existence of the file or change     ***
 *** properly the value of the keyword WFN_RESTART_FILE_NAME. Calculation ***
 *** continues using ATOMIC GUESS.                                        ***


 Atomic guess: The first density matrix is obtained in terms of atomic orbitals
               and electronic configurations assigned to each atomic kind

 Guess for atomic kind: F

 Electronic structure
    Total number of core electrons                                          0.00
    Total number of valence electrons                                       9.00
    Total number of electrons                                               9.00
    Multiplicity                                                   not specified
    S      2.00  2.00
    P      5.00


 *******************************************************************************
                  Iteration          Convergence                     Energy [au]
 *******************************************************************************
                          1         1.52066                     -98.907115521677
                          2         1.70412                     -98.843775136229
                          3        0.166399                     -99.093404004230
                          4        0.401876E-02                 -99.095941667127
                          5        0.400893E-03                 -99.095942922470
                          6        0.168347E-04                 -99.095942935483
                          7        0.210614E-06                 -99.095942935505

 Energy components [Hartree]           Total Energy ::          -99.095942935505
                                        Band Energy ::          -52.619924294857
                                     Kinetic Energy ::           98.648823475450
                                   Potential Energy ::         -197.744766410955
                                      Virial (-V/T) ::            2.004532435809
                                        Core Energy ::         -139.018067313943
                                          XC Energy ::           -9.620647524743
                                     Coulomb Energy ::           49.542771903181

 Orbital energies  State     L     Occupation   Energy[a.u.]          Energy[eV]

                       1     0          2.000     -24.190098         -658.246029
                       2     0          2.000      -1.085111          -29.527370

                       1     1          5.000      -0.413901          -11.262832


 Total Electron Density at R=0:                                       438.362200
 Re-scaling the density matrix to get the right number of electrons
                  # Electrons              Trace(P)               Scaling factor
                           18                18.000                        1.000


 SCF WAVEFUNCTION OPTIMIZATION

  Step     Update method      Time    Convergence         Total energy    Change
  ------------------------------------------------------------------------------
     1 P_Mix/Diag. 0.40E+00    2.7     0.14835221      -199.5557349013 -2.00E+02
     2 P_Mix/Diag. 0.40E+00    2.5     0.08839198      -199.5129279388  4.28E-02
     3 DIIS/Diag.  0.30E-01    2.6     0.05253609      -199.4830133007  2.99E-02
     4 DIIS/Diag.  0.21E-01    2.7     0.00468905      -199.4341368875  4.89E-02
     5 P_Mix/Diag. 0.40E+00    2.8     0.00610968      -199.4317301661  2.41E-03
     6 DIIS/Diag.  0.10E-01    2.8     0.00738173      -199.4328008379 -1.07E-03
     7 DIIS/Diag.  0.77E-01    2.7     0.00604591      -199.4314228619  1.38E-03
     8 DIIS/Diag.  0.15E-01    2.7     0.01171469      -199.4341178713 -2.70E-03
     9 P_Mix/Diag. 0.40E+00    2.8     0.02353427      -199.4272128935  6.90E-03
    10 DIIS/Diag.  0.41E-01    2.7     0.00387207      -199.4305963045 -3.38E-03
    11 DIIS/Diag.  0.13E-02    2.8     0.00031410      -199.4342023385 -3.61E-03
    12 DIIS/Diag.  0.18E-02    3.0     0.00030162      -199.4342017244  6.14E-07
    13 DIIS/Diag.  0.11E-02    3.0     0.00014000      -199.4342024544 -7.30E-07
    14 DIIS/Diag.  0.24E-03    3.1     0.00002350      -199.4342029100 -4.56E-07
    15 DIIS/Diag.  0.28E-06    3.0     0.00000004      -199.4342029292 -1.92E-08

  *** SCF run converged in    15 steps ***


  Electronic density on regular grids:        -13.1580837243        4.8419162757
  Core density on regular grids:               18.0000000000        0.0000000000
  Hard and soft densities (Lebedev):          -19.5709499620      -14.7290310106
  Total Rho_soft + Rho1_hard - Rho1_soft      -18.0000026757
  Total charge density (r-space):              -0.0000026757
  Total Rho_soft + Rho0_soft (g-space):        -0.0000028165

  Overlap energy of the core charge distribution:               0.00000000000000
  Self energy of the core charge distribution:               -209.12677936959636
  Core Hamiltonian energy:                                     -9.72947430876484
  Hartree energy:                                              27.71602439851854
  Exchange-correlation energy:                                 -8.14115911641233

  GAPW| Exc from hard and soft atomic rho1:                   -12.42221905709631
  GAPW| local Eh = 1 center integrals:                         12.26940452412251

  Total energy:                                              -199.43420292922880

 !-----------------------------------------------------------------------------!
                     Mulliken Population Analysis

 #  Atom  Element  Kind  Atomic population                           Net charge
       1     F        1          9.000000                              0.000000
       2     F        1          9.000000                             -0.000000
 # Total charge                             18.000000                 -0.000000

 !-----------------------------------------------------------------------------!

 !-----------------------------------------------------------------------------!
                           Hirshfeld Charges

  #Atom  Element  Kind  Ref Charge     Population                    Net charge
      1       F      1       9.000          8.999                         0.001
      2       F      1       9.000          8.999                         0.001

  Total Charge                                                            0.002
 !-----------------------------------------------------------------------------!


 RI-RPA section
 --------------

  Used number of processes per group:                                          1
  Maximum allowed memory usage per MPI processes:                     200.00 MiB

  HFX_MEM_INFO| Est. max. program size before HFX [MiB]:                     407
  HFX_MEM_INFO| Number of cart. primitive ERI's calculated:            413682126
  HFX_MEM_INFO| Number of sph. ERI's calculated:                        63227529
  HFX_MEM_INFO| Number of sph. ERI's stored in-core:                    63227529
  HFX_MEM_INFO| Number of sph. ERI's stored on disk:                           0
  HFX_MEM_INFO| Number of sph. ERI's calculated on the fly:                    0
  HFX_MEM_INFO| Total memory consumption ERI's RAM [MiB]:                    361
  HFX_MEM_INFO| Whereof max-vals [MiB]:                                        1
  HFX_MEM_INFO| Total compression factor ERI's RAM:                         1.34
  HFX_MEM_INFO| Total memory consumption ERI's disk [MiB]:                     0
  HFX_MEM_INFO| Total compression factor ERI's disk:                        0.00
  HFX_MEM_INFO| Size of density/Fock matrix [MiB]:                             0
  HFX_MEM_INFO| Size of buffers [MiB]:                                         0
  HFX_MEM_INFO| Est. max. program size after HFX  [MiB]:                     467

  GPW_INFO| Density cutoff [a.u.]:                                         150.0
  GPW_INFO| Relative density cutoff [a.u.]:                                 25.0
  RI_INFO| Cholesky decomposition group size:                                 24
  RI_INFO| Number of groups for auxiliary basis functions                     24
  RI_INFO| Occupied  basis set size:                                           9
  RI_INFO| Virtual   basis set size:                                         105
  RI_INFO| Auxiliary basis set size:                                         386
  RI_INFO| Total memory for (ia|K) integrals:                           2.78 MiB
  RI_INFO| Group size for frequency integration:                              24
  INTEG_INFO| MINIMAX quadrature
  INTEG_INFO| Number of integration points:                                   14
  INTEG_INFO| Number of integration points per RPA group:                     14
  MATRIX_INFO| Number row processes:                                           6
  MATRIX_INFO| Number column processes:                                        4
  MATRIX_INFO| Row block size:                                                78
  MATRIX_INFO| Column block size:                                             48
 Emin =  0.13418972730188086      Emax =   308.83747269072666      Range =   2301.4986236312134     
  INTEG_INFO| Range for the minimax approximation:                     2301.4986
  INTEG_INFO| Minimax parameters:                    Weights           Abscissas
                                                2.0079529219        0.2456201527
                                                2.5595438776        0.8037679699
                                                3.8705133177        1.5879200342
                                                6.4360330475        2.8422389703
                                               11.2603139344        4.9915502360
                                               20.3511791050        8.8225702143
                                               37.7897263084       15.8513352384
                                               72.1023390844       29.0982920466
                                              141.7294975367       54.7869166120
                                              288.2632669077      106.2293691273
                                              610.7673695936      213.2049413912
                                             1367.5477115880      446.5935935628
                                             3411.9930090435      997.7472561212
                                            12854.9703969556     2660.8868974558
  INTEG_INFO| Range for the minimax approximation:                     2301.4986
  INTEG_INFO| Gap:                                                        0.1342
  INTEG_INFO| Minimax parameters of the time grid:   Weights           Abscissas
                                                0.0004083546        0.0001563914
                                                0.0011118127        0.0008909986
                                                0.0023494724        0.0025544767
                                                0.0047987789        0.0059890796
                                                0.0095952299        0.0129258732
                                                0.0186713851        0.0265910501
                                                0.0353516311        0.0527782997
                                                0.0652765702        0.1016683028
                                                0.1178733621        0.1908220149
                                                0.2087732294        0.3500709578
                                                0.3641778127        0.6296628222
                                                0.6308230319        1.1150134361
                                                1.1097914516        1.9602521347
                                                2.1625379486        3.5112418328
 
 tau scaled:   1.1654496551698312E-003   6.6398420046169908E-003   1.9036305883457661E-002   4.4631431455494190E-002   9.6325355440666935E-002  0.19816010207208751       0.39331102883221913       0.75764594544426989        1.4220314681068136        2.6087761320795799        4.6923325266796176        8.3092309563203610        14.608064075221053        26.166249111570188     
 
 
 omega scaled:   3.2959701307358737E-002  0.10785740469278496       0.21308255636375259       0.38139927234789128       0.66981476497714709        1.1838982911648499        2.1270863530132038        3.9046918746778334        7.3518413998730532        14.254890074642102        28.609912944692596        59.928272534959753        133.88743221510200        357.06368715074058     
 
 
 weights_cos_tf_t_to_w
[...]
  RPA_IM_TIME_INFO| Number of periodic images T for Chi_PQ^T(it):              1
  RPA_IM_TIME_INFO| Number of periodic images T for Chi_PQ^T(it):              1
  RPA_IM_TIME_INFO| Number of periodic images T for Chi_PQ^T(it):              1
  RPA_IM_TIME_INFO| Number of periodic images T for Chi_PQ^T(it):              1
  
  GW quasiparticle energies
  -------------------------
   
  The GW quasiparticle energies are calculated according to: 
  E_GW = E_SCF + Z * ( Sigc(E_SCF) + Sigx - vxc )
   
  The energy unit of the following table is eV.  Sigc_fit is a very conservative
  estimate of the statistical error of the fitting.
   
            MO      E_SCF       Sigc   Sigc_fit   Sigx-vxc          Z       E_GW
     1 ( occ )   -662.973     -2.619      0.000    -55.740      1.000   -721.333
     2 ( occ )   -662.973     -2.582      0.000    -55.733      1.000   -721.289
     3 ( occ )    -33.903      6.243      0.000    -14.233      1.000    -41.893
     4 ( occ )    -27.588      6.694      0.000    -13.333      1.000    -34.227
     5 ( occ )    -15.382      0.297      0.000     -5.336      1.000    -20.420
     6 ( occ )    -12.805      4.299      0.000     -9.383      1.000    -17.889
     7 ( occ )    -12.805      4.299      0.000     -9.383      1.000    -17.889
     8 ( occ )     -9.408      3.356      0.000     -8.825      1.000    -14.877
     9 ( occ )     -9.408      3.356      0.000     -8.825      1.000    -14.877
    10 ( vir )     -5.757     -3.006      0.000      7.958      1.000     -0.805
    11 ( vir )      6.099     -1.136      0.000      4.245      1.000      9.208
    12 ( vir )      7.285     -0.514      0.000      4.097      1.000     10.867
    13 ( vir )      7.285     -0.514      0.000      4.097      1.000     10.867
    14 ( vir )      9.050     -1.099      0.000      4.249      1.000     12.200
    15 ( vir )      9.914     -0.487      0.000      3.981      1.000     13.407
    16 ( vir )      9.914     -0.487      0.000      3.981      1.000     13.407
    17 ( vir )     11.789     -1.641      0.000      5.897      1.000     16.045
    18 ( vir )     23.887     -1.787      0.000      5.993      1.000     28.093
    19 ( vir )     30.120     -2.375      0.000      8.012      1.000     35.757
   
  GW HOMO-LUMO gap (eV)                                                    14.07
  

  Total RI-RPA Time=                                                   34.153486
  RI-RPA energy  =                                             -0.94641600312815

  Total EXX Time=                                                       9.857651
  EXX energy  =                                               -19.87418017715170

 ENERGY| Total FORCE_EVAL ( QS ) energy (a.u.):             -199.691419711370884


 -------------------------------------------------------------------------------
 -                                                                             -
 -                                DBCSR STATISTICS                             -
 -                                                                             -
 -------------------------------------------------------------------------------
 COUNTER                                    TOTAL       BLAS       SMM       ACC
 flops    57 x    57 x    57              1481544     100.0%      0.0%      0.0%
 flops    57 x    57 x     9              2631690     100.0%      0.0%      0.0%
 flops   114 x   114 x    57              2963088     100.0%      0.0%      0.0%
 flops   193 x   193 x   193           1610348768     100.0%      0.0%      0.0%
 flops    57 x   969 x    57           2871232272     100.0%      0.0%      0.0%
 flops   386 x   114 x    57           5337509184     100.0%      0.0%      0.0%
 flops   386 x   114 x   193           9036309408     100.0%      0.0%      0.0%
 flops   193 x   193 x   532          26633332992     100.0%      0.0%      0.0%
 flops   193 x   193 x   551          27584523456     100.0%      0.0%      0.0%
 flops    57 x   912 x    57          29725698816     100.0%      0.0%      0.0%
 flops inhomo. stacks                           0       0.0%      0.0%      0.0%
 flops total                       102.806031E+09     100.0%      0.0%      0.0%
 flops max/rank                     19.641122E+09     100.0%      0.0%      0.0%
 matmuls inhomo. stacks                         0       0.0%      0.0%      0.0%
 matmuls total                               8575     100.0%      0.0%      0.0%
 number of processed stacks                  2675     100.0%      0.0%      0.0%
 average stack size                                     3.2       0.0       0.0
 marketing flops                   103.375184E+09
 -------------------------------------------------------------------------------
 # multiplications                            872
 max memory usage/rank             535.502848E+06
 # max total images/rank                        3
 # max 3D layers                                1
 # MPI messages exchanged                  378024
 MPI messages size (bytes):
  total size                         3.104506E+09
  min size                           0.000000E+00
  max size                         595.984000E+03
  average size                       8.212458E+03
 MPI breakdown and total messages size (bytes):
             size <=      128              364880                        0
       128 < size <=     8192                   0                        0
      8192 < size <=    32768                 126                  1140912
     32768 < size <=   131072                3218                167284512
    131072 < size <=  4194304                9800               2936144512
   4194304 < size <= 16777216                   0                        0
  16777216 < size                               0                        0
 -------------------------------------------------------------------------------

 *** WARNING in dbcsr_mm.F:278 :: Using a non-square number of MPI ranks ***
 *** might lead to poor performance. Used ranks: 24 Suggested: 25 49     ***

 -------------------------------------------------------------------------------
 -                                                                             -
 -                      DBCSR MESSAGE PASSING PERFORMANCE                      -
 -                                                                             -
 -------------------------------------------------------------------------------

 ROUTINE             CALLS      AVE VOLUME [Bytes]
 MP_Group               53
 MP_Bcast               11                     12.
 MP_Allreduce         4946                      8.
 MP_Alltoall          2944                  49288.
 MP_Wait             47456
 MP_ISend            34990                  19705.
 MP_IRecv            34990                     62.
 MP_Memory           64058
 -------------------------------------------------------------------------------


 MEMORY| Estimated peak process memory [MiB]                                 511

 -------------------------------------------------------------------------------
 ----                             MULTIGRID INFO                            ----
 -------------------------------------------------------------------------------
 count for grid        1:          78093          cutoff [a.u.]          200.00
 count for grid        2:           7086          cutoff [a.u.]           66.67
 count for grid        3:           2349          cutoff [a.u.]           22.22
 count for grid        4:            192          cutoff [a.u.]            7.41
 total gridlevel count  :          87720

 -------------------------------------------------------------------------------
 -                                                                             -
 -                         MESSAGE PASSING PERFORMANCE                         -
 -                                                                             -
 -------------------------------------------------------------------------------

 ROUTINE             CALLS      AVE VOLUME [Bytes]
 MP_Group                5
 MP_Bcast              183                1499464.
 MP_Allreduce          662                  77366.
 MP_Sync                86
 MP_Alltoall           403               10298684.
 MP_ISendRecv         1564                  72919.
 MP_Wait              4916
 MP_comm_split          24
 MP_ISend             5596                 202735.
 MP_IRecv             4956                 297044.
 MP_Recv                 4                   1824.
 -------------------------------------------------------------------------------


 -------------------------------------------------------------------------------
 -                                                                             -
 -                           R E F E R E N C E S                               -
 -                                                                             -
 -------------------------------------------------------------------------------
 
 CP2K version 7.0 (Development Version), the CP2K developers group (2018).
 CP2K is freely available from https://www.cp2k.org/ .

 Schuett, Ole; Messmer, Peter; Hutter, Juerg; VandeVondele, Joost. 
 Electronic Structure Calculations on Graphics Processing Units, John Wiley & Sons, Ltd, 173-190 (2016). 
 GPU-Accelerated Sparse Matrix-Matrix Multiplication for Linear Scaling Density Functional Theory.
 https://dx.doi.org/10.1002/9781118670712.ch8


 Del Ben, M; Schuett, O; Wentz, T; Messmer, P; Hutter, J;
 VandeVondele, J. 
 COMPUTER PHYSICS COMMUNICATIONS, 187, 120-129 (2015). 
 Enabling simulation at the fifth rung of DFT: Large scale RPA
 calculations with excellent time to solution.
 https://dx.doi.org/10.1016/j.cpc.2014.10.021


 Borstnik, U; VandeVondele, J; Weber, V; Hutter, J. 
 PARALLEL COMPUTING, 40 (5-6), 47-58 (2014). 
 Sparse matrix multiplication: The distributed block-compressed sparse
 row library.
 https://dx.doi.org/10.1016/j.parco.2014.03.012


 Hutter, J; Iannuzzi, M; Schiffmann, F; VandeVondele, J. 
 WILEY INTERDISCIPLINARY REVIEWS-COMPUTATIONAL MOLECULAR SCIENCE, 4 (1), 15-25 (2014). 
 CP2K: atomistic simulations of condensed matter systems.
 https://dx.doi.org/10.1002/wcms.1159


 Del Ben, M; Hutter, J; VandeVondele, J. 
 JOURNAL OF CHEMICAL THEORY AND COMPUTATION, 9 (6), 2654-2671 (2013). 
 Electron Correlation in the Condensed Phase from a Resolution of
 Identity Approach Based on the Gaussian and Plane Waves Scheme.
 https://dx.doi.org/10.1021/ct4002202


 Del Ben, M; Hutter, J; VandeVondele, J. 
 JOURNAL OF CHEMICAL THEORY AND COMPUTATION, 8 (11), 4177-4188 (2012). 
 Second-Order Moller-Plesset Perturbation Theory in the Condensed Phase:
 An Efficient and Massively Parallel Gaussian and Plane Waves Approach.
 https://dx.doi.org/10.1021/ct300531w


 Guidon, M; Hutter, J; VandeVondele, J. 
 JOURNAL OF CHEMICAL THEORY AND COMPUTATION, 5 (11), 3010-3021 (2009). 
 Robust Periodic Hartree-Fock Exchange for Large-Scale Simulations Using
 Gaussian Basis Sets.
 https://dx.doi.org/10.1021/ct900494g


 Guidon, M; Schiffmann, F; Hutter, J; VandeVondele, J. 
 JOURNAL OF CHEMICAL PHYSICS, 128 (21), 214104 (2008). 
 Ab initio molecular dynamics using hybrid density functionals.
 https://dx.doi.org/10.1063/1.2931945


 Frigo, M; Johnson, SG. 
 PROCEEDINGS OF THE IEEE, 93 (2), 216-231 (2005). 
 The design and implementation of FFTW3.
 https://dx.doi.org/10.1109/JPROC.2004.840301


 Lippert, G; Hutter, J; Parrinello, M. 
 THEORETICAL CHEMISTRY ACCOUNTS, 103 (2), 124-140 (1999). 
 The Gaussian and augmented-plane-wave density functional method for ab
 initio molecular dynamics simulations.
 https://dx.doi.org/10.1007/s002140050523


 Krack, M; Parrinello, M. 
 PHYSICAL CHEMISTRY CHEMICAL PHYSICS, 2 (10), 2105-2112 (2000). 
 All-electron ab-initio molecular dynamics.
 https://dx.doi.org/10.1039/b001167n


 Martyna, GJ; Tuckerman, ME. 
 JOURNAL OF CHEMICAL PHYSICS, 110 (6), 2810-2821 (1999). 
 A reciprocal space based method for treating long range interactions in
 ab initio and force-field-based calculations in clusters.
 https://dx.doi.org/10.1063/1.477923


 Perdew, JP; Burke, K; Ernzerhof, M. 
 PHYSICAL REVIEW LETTERS, 77 (18), 3865-3868 (1996). 
 Generalized gradient approximation made simple.
 https://dx.doi.org/10.1103/PhysRevLett.77.3865


 -------------------------------------------------------------------------------
 -                                                                             -
 -                                T I M I N G                                  -
 -                                                                             -
 -------------------------------------------------------------------------------
 SUBROUTINE                       CALLS  ASD         SELF TIME        TOTAL TIME
                                MAXIMUM       AVERAGE  MAXIMUM  AVERAGE  MAXIMUM
 CP2K                                 1  1.0    0.030    0.057   88.809   88.810
 qs_energies                          1  2.0    0.000    0.000   87.435   87.436
 mp2_main                             1  3.0    0.000    0.001   44.029   44.036
 scf_env_do_scf                       1  3.0    0.000    0.000   42.401   42.401
 scf_env_do_scf_inner_loop           15  4.0    0.001    0.002   42.401   42.401
 qs_ks_build_kohn_sham_matrix        16  6.9    0.004    0.005   36.281   36.302
 qs_ks_update_qs_env                 15  5.0    0.000    0.000   35.063   35.083
 rebuild_ks_matrix                   15  6.0    0.000    0.000   35.062   35.082
 mp2_gpw_main                         1  4.0    0.000    0.001   34.153   34.153
 pw_transfer                        333  9.6    0.040    0.044   24.050   24.649
 fft_wrap_pw1pw2                    283 10.6    0.006    0.007   23.693   24.348
 fft_wrap_pw1pw2_200                186 11.7    1.486    1.833   22.291   23.037
 fft3d_ps                           283 12.6    8.559    9.795   17.485   20.529
 rpa_ri_compute_en                    1  5.0    0.000    0.000   20.378   20.378
 rpa_num_int                          1  6.0    0.001    0.003   20.375   20.376
 qs_vxc_create                       16  7.9    0.000    0.001   15.413   15.414
 xc_vxc_pw_create                    15  9.0    0.205    0.254   15.413   15.413
 mp_alltoall_z22v                   283 14.6    5.338   13.924    5.338   13.924
 mp2_ri_gpw_compute_in                1  5.0    0.000    0.000   10.908   13.770
 compute_3c_overlap_int               1  6.0    3.582    4.664   10.643   13.506
 rs_pw_transfer                     162  9.4    0.005    0.006    9.445    9.918
 compute_vec_Sigma_x_minus_vxc_       1  4.0    0.000    0.000    9.858    9.858
 dbcsr_multiply_generic             872  9.9    0.057    0.069    7.771    9.304
 mp_comm_split_direct                 8  6.6    2.889    8.770    2.889    8.770
 create_dbcsr_matrices_im_time        1  5.0    0.001    0.001    2.866    8.753
 compute_3c_overlap_int_put_dbc   19652  7.0    6.845    8.739    6.845    8.739
 integrate_four_center                1  5.0    0.004    0.005    8.633    8.633
 yz_to_x                            142 13.2    1.673    2.213    4.722    8.395
 mp_sum_d                          1182  6.7    4.753    8.108    4.753    8.108
 xc_rho_set_and_dset_create          15 10.0    0.132    0.148    6.903    7.752
 multiply_cannon                    872 10.9    0.144    0.168    5.162    7.614
 qs_rho_update_rho                   16  5.0    0.000    0.000    7.567    7.567
 calculate_rho_elec                  16  6.0    0.141    0.958    7.509    7.509
 GW_postprocessing                    1  7.0    0.000    0.000    7.505    7.505
 compute_self_energy_im_time_gw       1  8.0    0.003    0.009    7.500    7.505
 mp_waitany                        2808 11.4    3.884    7.398    3.884    7.398
 density_rs2pw                       16  7.0    0.002    0.002    6.889    7.110
 x_to_yz                            141 14.1    1.903    2.415    4.192    6.569
 prepare_gapw_den                    16  7.9    0.001    0.001    6.149    6.325
 sum_up_and_integrate                16  7.9    0.060    0.073    5.785    6.178
 integrate_v_rspace                  16  8.9    0.068    0.444    5.725    6.116
 mp_waitall_1                     49480 13.5    2.874    5.705    2.874    5.705
 potential_pw2rs                     16  9.9    0.004    0.005    5.596    5.631
 multiply_cannon_metrocomm3        9991 11.9    0.017    0.022    1.757    5.315
 multiply_cannon_multrec           9991 11.9    1.131    4.944    1.664    4.978
 mp_sum_dm                          102  7.7    2.217    4.302    2.217    4.302
 multiply_cannon_metrocomm1        9991 11.9    0.011    0.013    0.732    4.300
 put_rho0_on_grid                    16  8.9    0.029    0.034    4.115    4.290
 rs_pw_transfer_PW2RS_200            33 10.8    2.070    2.433    3.932    4.181
 mp_sync                             86  8.7    2.672    4.097    2.672    4.097
 rs_pw_transfer_RS2PW_200            33  9.9    1.797    2.175    3.639    4.091
 compute_self_energy_im_time_gw     266  9.0    0.001    0.002    3.062    3.990
 calc_screening_functions             1  6.0    2.635    2.722    3.763    3.889
 rpa_num_int_im_t_alloc_mat_gw        1  7.0    0.000    0.000    0.176    3.419
 allocate_matrices_gw_im_time         1  8.0    0.000    0.000    0.176    3.419
 get_mat_3c_overl_int_gw              1  9.0    0.001    0.001    0.175    3.418
 fill_mat_3c_overl_int_gw             1 10.0    0.000    0.000    0.157    3.399
 rpa_num_int_im_t_alloc_mat_24        1  7.0    0.000    0.000    3.244    3.391
 cp_fm_copy_general                   2  8.0    0.000    0.000    3.244    3.391
 cp_fm_start_copy_general             2  9.0    0.001    0.001    3.244    3.390
 mp_allgather_i                       4 10.0    3.243    3.389    3.243    3.389
 mp_sum_dv                           68  8.4    1.860    3.381    1.860    3.381
 GW3c_fill_mat                        1 11.0    0.066    1.581    0.141    3.380
 integrate_four_center_main           1  6.0    0.000    0.000    0.731    3.168
 integrate_four_center_bin          128  7.0    0.731    3.168    0.731    3.168
 dbcsr_trace_a_b_d                  564  9.9    0.005    0.062    1.441    3.003
 compute_mat_P_omega                  1  7.0    0.000    0.001    2.982    2.989
 compute_self_energy_im_time_gw     266  9.0    0.001    0.001    1.416    2.981
 pw_gather_p                        142 12.2    2.300    2.764    2.300    2.764
 calculate_vxc_atom                  16  7.9    0.036    0.395    2.680    2.682
 integrate_vhg0_rspace               16  7.9    0.138    0.171    2.532    2.677
 pw_scatter_p                       141 13.1    2.340    2.610    2.340    2.610
 mp_sum_l                          4322 10.9    1.279    2.480    1.279    2.480
 gaVxcgb_GC                          15  9.0    0.182    2.186    0.182    2.186
 get_l_sq_wghts_cos_tf_t_to_w         1  7.0    1.045    1.995    2.002    2.023
 powell_optimize                 345884  7.0    1.962    2.023    1.962    2.023
 get_l_sq_wghts_sin_tf_t_to_w         1  7.0    1.044    2.019    2.019    2.020
 get_l_sq_wghts_cos_tf_w_to_t         1  7.0    1.029    1.973    1.975    1.977
 calculate_rho_atom                  16  8.9    0.496    1.828    0.496    1.828
 -------------------------------------------------------------------------------

 The number of warnings for this run is : 3
 
 -------------------------------------------------------------------------------
  **** **** ******  **  PROGRAM ENDED AT                 2019-05-31 02:17:30.725
 ***** ** ***  *** **   PROGRAM RAN ON                                    tcopt4
 **    ****   ******    PROGRAM RAN BY                                   wilhelm
 ***** **    ** ** **   PROGRAM PROCESS ID                                 22019
  **** **  *******  **  PROGRAM STOPPED IN /data/wilhelm/2_job_test/11_GW100/3_c
                                           alcs/16_F2
