 DBCSR| CPU Multiplication driver                                           BLAS
 DBCSR| Multrec recursion limit                                              512
 DBCSR| Multiplication stack size                                           1000
 DBCSR| Maximum elements for images                                    UNLIMITED
 DBCSR| Multiplicative factor virtual images                                   1
 DBCSR| Use multiplication densification                                       T
 DBCSR| Multiplication size stacks                                             3
 DBCSR| Number of 3D layers                                               SINGLE
 DBCSR| Use MPI memory allocation                                              T
 DBCSR| Use RMA algorithm                                                      F
 DBCSR| Use Communication thread                                               T
 DBCSR| Communication thread load                                             87


  **** **** ******  **  PROGRAM STARTED AT               2019-06-07 18:57:42.086
 ***** ** ***  *** **   PROGRAM STARTED ON                                tcopt4
 **    ****   ******    PROGRAM STARTED BY                               wilhelm
 ***** **    ** ** **   PROGRAM PROCESS ID                                 93764
  **** **  *******  **  PROGRAM STARTED IN /data/wilhelm/2_job_test/11_GW100/3_c
                                           alcs/67_PN

 CP2K| version string:                    CP2K version 7.0 (Development Version)
 CP2K| source code revision number:                                  git:bc2813a
 CP2K| cp2kflags: libint fftw3 libxc pexsi elpa=201705 parallel mpi3 scalapack q
 CP2K|            uip libderiv_max_am1=5 libint_max_am=6
 CP2K| is freely available from                            https://www.cp2k.org/
 CP2K| Program compiled at                         Sun Jun  2 14:38:23 CEST 2019
 CP2K| Program compiled on                                                tcopt4
 CP2K| Program compiled for                            local_valgrind_March_2019
 CP2K| Data directory path              /data/wilhelm/1_git_repository/cp2k/data
 CP2K| Input file name                                                    GW.inp

 GLOBAL| Force Environment number                                              1
 GLOBAL| Basis set file name                              BASIS_def2_QZVP_RI_ALL
 GLOBAL| Potential file name                                           POTENTIAL
 GLOBAL| MM Potential file name                                     MM_POTENTIAL
 GLOBAL| Coordinate file name                                          67_PN.xyz
 GLOBAL| Method name                                                        CP2K
 GLOBAL| Project name                                                   ALL_ELEC
 GLOBAL| Preferred FFT library                                             FFTW3
 GLOBAL| Preferred diagonalization lib.                                       SL
 GLOBAL| Run type                                                         ENERGY
 GLOBAL| All-to-all communication in single precision                          F
 GLOBAL| FFTs using library dependent lengths                                  F
 GLOBAL| Global print level                                               MEDIUM
 GLOBAL| MPI I/O enabled                                                       T
 GLOBAL| Total number of message passing processes                            24
 GLOBAL| Number of threads for this process                                    1
 GLOBAL| This output is from process                                           0
 GLOBAL| CPU model name :  Intel(R) Xeon(R) CPU E5-2697 v3 @ 2.60GHz

 MEMORY| system memory details [Kb]
 MEMORY|                        rank 0           min           max       average
 MEMORY| MemTotal            396954008     396954008     396954008     396954008
 MEMORY| MemFree             339545824     339545824     339545824     339545824
 MEMORY| Buffers                339172        339172        339172        339172
 MEMORY| Cached               41398884      41398884      41398884      41398884
 MEMORY| Slab                  1443460       1443460       1443460       1443460
 MEMORY| SReclaimable          1302240       1302240       1302240       1302240
 MEMORY| MemLikelyFree       382586120     382586120     382586120     382586120


 *** Fundamental physical constants (SI units) ***

 *** Literature: B. J. Mohr and B. N. Taylor,
 ***             CODATA recommended values of the fundamental physical
 ***             constants: 2006, Web Version 5.1
 ***             http://physics.nist.gov/constants

 Speed of light in vacuum [m/s]                             2.99792458000000E+08
 Magnetic constant or permeability of vacuum [N/A**2]       1.25663706143592E-06
 Electric constant or permittivity of vacuum [F/m]          8.85418781762039E-12
 Planck constant (h) [J*s]                                  6.62606896000000E-34
 Planck constant (h-bar) [J*s]                              1.05457162825177E-34
 Elementary charge [C]                                      1.60217648700000E-19
 Electron mass [kg]                                         9.10938215000000E-31
 Electron g factor [ ]                                     -2.00231930436220E+00
 Proton mass [kg]                                           1.67262163700000E-27
 Fine-structure constant                                    7.29735253760000E-03
 Rydberg constant [1/m]                                     1.09737315685270E+07
 Avogadro constant [1/mol]                                  6.02214179000000E+23
 Boltzmann constant [J/K]                                   1.38065040000000E-23
 Atomic mass unit [kg]                                      1.66053878200000E-27
 Bohr radius [m]                                            5.29177208590000E-11

 *** Conversion factors ***

 [u] -> [a.u.]                                              1.82288848426455E+03
 [Angstrom] -> [Bohr] = [a.u.]                              1.88972613288564E+00
 [a.u.] = [Bohr] -> [Angstrom]                              5.29177208590000E-01
 [a.u.] -> [s]                                              2.41888432650478E-17
 [a.u.] -> [fs]                                             2.41888432650478E-02
 [a.u.] -> [J]                                              4.35974393937059E-18
 [a.u.] -> [N]                                              8.23872205491840E-08
 [a.u.] -> [K]                                              3.15774647902944E+05
 [a.u.] -> [kJ/mol]                                         2.62549961709828E+03
 [a.u.] -> [kcal/mol]                                       6.27509468713739E+02
 [a.u.] -> [Pa]                                             2.94210107994716E+13
 [a.u.] -> [bar]                                            2.94210107994716E+08
 [a.u.] -> [atm]                                            2.90362800883016E+08
 [a.u.] -> [eV]                                             2.72113838565563E+01
 [a.u.] -> [Hz]                                             6.57968392072181E+15
 [a.u.] -> [1/cm] (wave numbers)                            2.19474631370540E+05
 [a.u./Bohr**2] -> [1/cm]                                   5.14048714338585E+03
 

 CELL_TOP| Volume [angstrom^3]:                                         4096.000
 CELL_TOP| Vector a [angstrom    16.000     0.000     0.000    |a| =      16.000
 CELL_TOP| Vector b [angstrom     0.000    16.000     0.000    |b| =      16.000
 CELL_TOP| Vector c [angstrom     0.000     0.000    16.000    |c| =      16.000
 CELL_TOP| Angle (b,c), alpha [degree]:                                   90.000
 CELL_TOP| Angle (a,c), beta  [degree]:                                   90.000
 CELL_TOP| Angle (a,b), gamma [degree]:                                   90.000
 CELL_TOP| Numerically orthorhombic:                                         YES

 GENERATE|  Preliminary Number of Bonds generated:                             0
 GENERATE|  Achieved consistency in connectivity generation.

 CELL| Volume [angstrom^3]:                                             4096.000
 CELL| Vector a [angstrom]:      16.000     0.000     0.000    |a| =      16.000
 CELL| Vector b [angstrom]:       0.000    16.000     0.000    |b| =      16.000
 CELL| Vector c [angstrom]:       0.000     0.000    16.000    |c| =      16.000
 CELL| Angle (b,c), alpha [degree]:                                       90.000
 CELL| Angle (a,c), beta  [degree]:                                       90.000
 CELL| Angle (a,b), gamma [degree]:                                       90.000
 CELL| Numerically orthorhombic:                                             YES

 CELL_REF| Volume [angstrom^3]:                                         4096.000
 CELL_REF| Vector a [angstrom    16.000     0.000     0.000    |a| =      16.000
 CELL_REF| Vector b [angstrom     0.000    16.000     0.000    |b| =      16.000
 CELL_REF| Vector c [angstrom     0.000     0.000    16.000    |c| =      16.000
 CELL_REF| Angle (b,c), alpha [degree]:                                   90.000
 CELL_REF| Angle (a,c), beta  [degree]:                                   90.000
 CELL_REF| Angle (a,b), gamma [degree]:                                   90.000
 CELL_REF| Numerically orthorhombic:                                         YES

 *******************************************************************************
 *******************************************************************************
 **                                                                           **
 **     #####                         ##              ##                      **
 **    ##   ##            ##          ##              ##                      **
 **   ##     ##                       ##            ######                    **
 **   ##     ##  ##   ##  ##   #####  ##  ##   ####   ##    #####    #####    **
 **   ##     ##  ##   ##  ##  ##      ## ##   ##      ##   ##   ##  ##   ##   **
 **   ##  ## ##  ##   ##  ##  ##      ####     ###    ##   ######   ######    **
 **    ##  ###   ##   ##  ##  ##      ## ##      ##   ##   ##       ##        **
 **     #######   #####   ##   #####  ##  ##  ####    ##    #####   ##        **
 **           ##                                                    ##        **
 **                                                                           **
 **                                                ... make the atoms dance   **
 **                                                                           **
 **            Copyright (C) by CP2K developers group (2000 - 2019)           **
 **                                                                           **
 *******************************************************************************

 DFT| Spin restricted Kohn-Sham (RKS) calculation                            RKS
 DFT| Multiplicity                                                             1
 DFT| Number of spin states                                                    1
 DFT| Charge                                                                   0
 DFT| Self-interaction correction (SIC)                                       NO
 DFT| Cutoffs: density                                              1.000000E-10
 DFT|          gradient                                             1.000000E-10
 DFT|          tau                                                  1.000000E-10
 DFT|          cutoff_smoothing_range                               0.000000E+00
 DFT| XC density smoothing                                                  NONE
 DFT| XC derivatives                                                          PW
 FUNCTIONAL| ROUTINE=NEW
 FUNCTIONAL| PBE:
 FUNCTIONAL| J.P.Perdew, K.Burke, M.Ernzerhof, Phys. Rev. Letter, vol. 77, n 18,
 FUNCTIONAL|  pp. 3865-3868, (1996){spin unpolarized}                           

 QS| Method:                                                                GAPW
 QS| Density plane wave grid type                        NON-SPHERICAL FULLSPACE
 QS| Number of grid levels:                                                    4
 QS| Density cutoff [a.u.]:                                                200.0
 QS| Multi grid cutoff [a.u.]: 1) grid level                               200.0
 QS|                           2) grid level                                66.7
 QS|                           3) grid level                                22.2
 QS|                           4) grid level                                 7.4
 QS| Grid level progression factor:                                          3.0
 QS| Relative density cutoff [a.u.]:                                        25.0
 QS| Consistent realspace mapping and integration 
 QS| Interaction thresholds: eps_pgf_orb:                                1.0E-05
 QS|                         eps_filter_matrix:                          0.0E+00
 QS|                         eps_core_charge:                            1.0E-12
 QS|                         eps_rho_gspace:                             1.0E-10
 QS|                         eps_rho_rspace:                             1.0E-10
 QS|                         eps_gvg_rspace:                             1.0E-05
 QS|                         eps_ppl:                                    1.0E-02
 QS|                         eps_ppnl:                                   1.0E-07
 QS| GAPW|                   eps_fit:                                    1.0E-04
 QS| GAPW|                   eps_iso:                                    1.0E-12
 QS| GAPW|                   eps_svd:                                    1.0E-08
 QS| GAPW|                   eps_cpc:                                    1.0E-10
 QS| GAPW|   atom-r-grid: quadrature:                 GC_LOG                        
 QS| GAPW|      atom-s-grid:  max l :                                          8
 QS| GAPW|      max_l_rho0 :                                                   2


 ATOMIC KIND INFORMATION

  1. Atomic kind: P                                     Number of atoms:       1

     Orbital Basis Set                                                 def2-QZVP

       Number of orbital shell sets:                                          22
       Number of orbital shells:                                              22
       Number of primitive Cartesian functions:                               41
       Number of Cartesian basis functions:                                   86
       Number of spherical basis functions:                                   70
       Norm type:                                                              2

       Normalised Cartesian orbitals:

                        Set   Shell   Orbital            Exponent    Coefficient

                          1       1    1s          1090561.713800       0.354233
                                                    163316.394610       0.662930
                                                     37166.607451       1.148249
                                                     10526.880945       1.877659
                                                      3433.997603       2.927385
                                                      1239.536048       4.335998
                                                       483.274562       5.990498
                                                       200.169116       7.350778
                                                        86.960395       7.320103
                                                        39.211283       4.901825

                          2       1    1s              336.758837       1.344521
                                                       103.721798       4.972397
                                                        39.771861       9.006443

                          3       1    1s               17.888613       6.199299

                          4       1    1s                6.964456       3.055452

                          5       1    1s                3.219809       1.713100

                          6       1    1s                1.466994       0.950017

                          7       1    1s                0.477654       0.409492

                          8       1    1s                0.216378       0.226110

                          9       1    1s                0.090236       0.117340

                         10       1    1px            2019.671137       4.421439
                                                       478.601251       6.355195
                                                       155.149425       8.430928
                                                        58.816357       9.862858
                                                        24.544513       9.802663
                                                        10.883571       7.540891
                                                         4.962479       4.124365
                                                         2.300291       1.375764
                         10       1    1py            2019.671137       4.421439
                                                       478.601251       6.355195
                                                       155.149425       8.430928
                                                        58.816357       9.862858
                                                        24.544513       9.802663
                                                        10.883571       7.540891
                                                         4.962479       4.124365
                                                         2.300291       1.375764
                         10       1    1pz            2019.671137       4.421439
                                                       478.601251       6.355195
                                                       155.149425       8.430928
                                                        58.816357       9.862858
                                                        24.544513       9.802663
                                                        10.883571       7.540891
                                                         4.962479       4.124365
                                                         2.300291       1.375764

                         11       1    1px              59.371345      14.666663
                                                         3.069459      -5.824509
                         11       1    1py              59.371345      14.666663
                                                         3.069459      -5.824509
                         11       1    1pz              59.371345      14.666663
                                                         3.069459      -5.824509

                         12       1    1px               1.063440       1.539329
                         12       1    1py               1.063440       1.539329
                         12       1    1pz               1.063440       1.539329

                         13       1    1px               0.450222       0.525682
                         13       1    1py               0.450222       0.525682
                         13       1    1pz               0.450222       0.525682

                         14       1    1px               0.182673       0.170228
                         14       1    1py               0.182673       0.170228
                         14       1    1pz               0.182673       0.170228

                         15       1    1px               0.071610       0.052803
                         15       1    1py               0.071610       0.052803
                         15       1    1pz               0.071610       0.052803

                         16       1    1dx2              3.343000      13.603420
                         16       1    1dxy              3.343000      23.561815
                         16       1    1dxz              3.343000      23.561815
                         16       1    1dy2              3.343000      13.603420
                         16       1    1dyz              3.343000      23.561815
                         16       1    1dz2              3.343000      13.603420

                         17       1    1dx2              0.807000       1.130936
                         17       1    1dxy              0.807000       1.958839
                         17       1    1dxz              0.807000       1.958839
                         17       1    1dy2              0.807000       1.130936
                         17       1    1dyz              0.807000       1.958839
                         17       1    1dz2              0.807000       1.130936

                         18       1    1dx2              0.365000       0.282112
                         18       1    1dxy              0.365000       0.488633
                         18       1    1dxz              0.365000       0.488633
                         18       1    1dy2              0.365000       0.282112
                         18       1    1dyz              0.365000       0.488633
                         18       1    1dz2              0.365000       0.282112

                         19       1    1dx2              0.154000       0.062312
                         19       1    1dxy              0.154000       0.107927
                         19       1    1dxz              0.154000       0.107927
                         19       1    1dy2              0.154000       0.062312
                         19       1    1dyz              0.154000       0.107927
                         19       1    1dz2              0.154000       0.062312

                         20       1    1fx3              0.280000       0.083958
                         20       1    1fx2y             0.280000       0.187735
                         20       1    1fx2z             0.280000       0.187735
                         20       1    1fxy2             0.280000       0.187735
                         20       1    1fxyz             0.280000       0.325166
                         20       1    1fxz2             0.280000       0.187735
                         20       1    1fy3              0.280000       0.083958
                         20       1    1fy2z             0.280000       0.187735
                         20       1    1fyz2             0.280000       0.187735
                         20       1    1fz3              0.280000       0.083958

                         21       1    1fx3              0.703000       0.666199
                         21       1    1fx2y             0.703000       1.489666
                         21       1    1fx2z             0.703000       1.489666
                         21       1    1fxy2             0.703000       1.489666
                         21       1    1fxyz             0.703000       2.580177
                         21       1    1fxz2             0.703000       1.489666
                         21       1    1fy3              0.703000       0.666199
                         21       1    1fy2z             0.703000       1.489666
                         21       1    1fyz2             0.703000       1.489666
                         21       1    1fz3              0.703000       0.666199

                         22       1    1gx4              0.597000       0.269380
                         22       1    1gx3y             0.597000       0.712712
                         22       1    1gx3z             0.597000       0.712712
                         22       1    1gx2y2            0.597000       0.920107
                         22       1    1gx2yz            0.597000       1.593672
                         22       1    1gx2z2            0.597000       0.920107
                         22       1    1gxy3             0.597000       0.712712
                         22       1    1gxy2z            0.597000       1.593672
                         22       1    1gxyz2            0.597000       1.593672
                         22       1    1gxz3             0.597000       0.712712
                         22       1    1gy4              0.597000       0.269380
                         22       1    1gy3z             0.597000       0.712712
                         22       1    1gy2z2            0.597000       0.920107
                         22       1    1gyz3             0.597000       0.712712
                         22       1    1gz4              0.597000       0.269380

     RI Auxiliary Basis Set                                                RI-5Z

       Number of orbital shell sets:                                          48
       Number of orbital shells:                                              48
       Number of primitive Cartesian functions:                               48
       Number of Cartesian basis functions:                                  335
       Number of spherical basis functions:                                  230
       Norm type:                                                              2

       Normalised Cartesian orbitals:

                        Set   Shell   Orbital            Exponent    Coefficient

                          1       1    1s              901.738000     117.279032

                          2       1    1s              197.096000      37.490260

                          3       1    1s               81.752300      19.376935

                          4       1    1s               26.055500       8.219297

                          5       1    1s               10.962400       4.293775

                          6       1    1s                4.737650       2.288665

                          7       1    1s                2.761420       1.526720

                          8       1    1s                1.228660       0.831733

                          9       1    1s                0.695379       0.542721

                         10       1    1s                0.450632       0.391991

                         11       1    1s                0.230804       0.237325

                         12       1    1s                0.133265       0.157198

                         13       1    1px             247.839000    1401.690558
                         13       1    1py             247.839000    1401.690558
                         13       1    1pz             247.839000    1401.690558

                         14       1    1px              74.952700     314.357763
                         14       1    1py              74.952700     314.357763
                         14       1    1pz              74.952700     314.357763

                         15       1    1px              26.436800      85.447861
                         15       1    1py              26.436800      85.447861
                         15       1    1pz              26.436800      85.447861

                         16       1    1px              12.270500      32.735420
                         16       1    1py              12.270500      32.735420
                         16       1    1pz              12.270500      32.735420

                         17       1    1px               5.686810      12.517742
                         17       1    1py               5.686810      12.517742
                         17       1    1pz               5.686810      12.517742

                         18       1    1px               2.784010       5.126000
                         18       1    1py               2.784010       5.126000
                         18       1    1pz               2.784010       5.126000

                         19       1    1px               1.353540       2.081033
                         19       1    1py               1.353540       2.081033
                         19       1    1pz               1.353540       2.081033

                         20       1    1px               0.837864       1.142634
                         20       1    1py               0.837864       1.142634
                         20       1    1pz               0.837864       1.142634

                         21       1    1px               0.533820       0.650405
                         21       1    1py               0.533820       0.650405
                         21       1    1pz               0.533820       0.650405

                         22       1    1px               0.344629       0.376383
                         22       1    1py               0.344629       0.376383
                         22       1    1pz               0.344629       0.376383

                         23       1    1px               0.154352       0.137905
                         23       1    1py               0.154352       0.137905
                         23       1    1pz               0.154352       0.137905

                         24       1    1dx2             74.265300    3092.323001
                         24       1    1dxy             74.265300    5356.060551
                         24       1    1dxz             74.265300    5356.060551
                         24       1    1dy2             74.265300    3092.323001
                         24       1    1dyz             74.265300    5356.060551
                         24       1    1dz2             74.265300    3092.323001

                         25       1    1dx2             23.933000     426.240245
                         25       1    1dxy             23.933000     738.269760
                         25       1    1dxz             23.933000     738.269760
                         25       1    1dy2             23.933000     426.240245
                         25       1    1dyz             23.933000     738.269760
                         25       1    1dz2             23.933000     426.240245

                         26       1    1dx2              8.160200      64.846399
                         26       1    1dxy              8.160200     112.317257
                         26       1    1dxz              8.160200     112.317257
                         26       1    1dy2              8.160200      64.846399
                         26       1    1dyz              8.160200     112.317257
                         26       1    1dz2              8.160200      64.846399

                         27       1    1dx2              4.103230      19.470617
                         27       1    1dxy              4.103230      33.724098
                         27       1    1dxz              4.103230      33.724098
                         27       1    1dy2              4.103230      19.470617
                         27       1    1dyz              4.103230      33.724098
                         27       1    1dz2              4.103230      19.470617

                         28       1    1dx2              1.563160       3.596793
                         28       1    1dxy              1.563160       6.229829
                         28       1    1dxz              1.563160       6.229829
                         28       1    1dy2              1.563160       3.596793
                         28       1    1dyz              1.563160       6.229829
                         28       1    1dz2              1.563160       3.596793

                         29       1    1dx2              0.996352       1.635430
                         29       1    1dxy              0.996352       2.832647
                         29       1    1dxz              0.996352       2.832647
                         29       1    1dy2              0.996352       1.635430
                         29       1    1dyz              0.996352       2.832647
                         29       1    1dz2              0.996352       1.635430

                         30       1    1dx2              0.569553       0.614602
                         30       1    1dxy              0.569553       1.064522
                         30       1    1dxz              0.569553       1.064522
                         30       1    1dy2              0.569553       0.614602
                         30       1    1dyz              0.569553       1.064522
                         30       1    1dz2              0.569553       0.614602

                         31       1    1dx2              0.308619       0.210329
                         31       1    1dxy              0.308619       0.364300
                         31       1    1dxz              0.308619       0.364300
                         31       1    1dy2              0.308619       0.210329
                         31       1    1dyz              0.308619       0.364300
                         31       1    1dz2              0.308619       0.210329

                         32       1    1dx2              0.166558       0.071474
                         32       1    1dxy              0.166558       0.123797
                         32       1    1dxz              0.166558       0.123797
                         32       1    1dy2              0.166558       0.071474
                         32       1    1dyz              0.166558       0.123797
                         32       1    1dz2              0.166558       0.071474

                         33       1    1fx3             15.731200     725.552124
                         33       1    1fx2y            15.731200    1622.383871
                         33       1    1fx2z            15.731200    1622.383871
                         33       1    1fxy2            15.731200    1622.383871
                         33       1    1fxyz            15.731200    2810.051294
                         33       1    1fxz2            15.731200    1622.383871
                         33       1    1fy3             15.731200     725.552124
                         33       1    1fy2z            15.731200    1622.383871
                         33       1    1fyz2            15.731200    1622.383871
                         33       1    1fz3             15.731200     725.552124

                         34       1    1fx3              7.511490     137.511228
                         34       1    1fx2y             7.511490     307.484453
                         34       1    1fx2z             7.511490     307.484453
                         34       1    1fxy2             7.511490     307.484453
                         34       1    1fxyz             7.511490     532.578695
                         34       1    1fxz2             7.511490     307.484453
                         34       1    1fy3              7.511490     137.511228
                         34       1    1fy2z             7.511490     307.484453
                         34       1    1fyz2             7.511490     307.484453
                         34       1    1fz3              7.511490     137.511228

                         35       1    1fx3              3.578070      25.921750
                         35       1    1fx2y             3.578070      57.962796
                         35       1    1fx2z             3.578070      57.962796
                         35       1    1fxy2             3.578070      57.962796
                         35       1    1fxyz             3.578070     100.394507
                         35       1    1fxz2             3.578070      57.962796
                         35       1    1fy3              3.578070      25.921750
                         35       1    1fy2z             3.578070      57.962796
                         35       1    1fyz2             3.578070      57.962796
                         35       1    1fz3              3.578070      25.921750

                         36       1    1fx3              1.337750       2.833336
                         36       1    1fx2y             1.337750       6.335532
                         36       1    1fx2z             1.337750       6.335532
                         36       1    1fxy2             1.337750       6.335532
                         36       1    1fxyz             1.337750      10.973464
                         36       1    1fxz2             1.337750       6.335532
                         36       1    1fy3              1.337750       2.833336
                         36       1    1fy2z             1.337750       6.335532
                         36       1    1fyz2             1.337750       6.335532
                         36       1    1fz3              1.337750       2.833336

                         37       1    1fx3              1.004780       1.488038
                         37       1    1fx2y             1.004780       3.327355
                         37       1    1fx2z             1.004780       3.327355
                         37       1    1fxy2             1.004780       3.327355
                         37       1    1fxyz             1.004780       5.763148
                         37       1    1fxz2             1.004780       3.327355
                         37       1    1fy3              1.004780       1.488038
                         37       1    1fy2z             1.004780       3.327355
                         37       1    1fyz2             1.004780       3.327355
                         37       1    1fz3              1.004780       1.488038

                         38       1    1fx3              0.555856       0.392753
                         38       1    1fx2y             0.555856       0.878223
                         38       1    1fx2z             0.555856       0.878223
                         38       1    1fxy2             0.555856       0.878223
                         38       1    1fxyz             0.555856       1.521126
                         38       1    1fxz2             0.555856       0.878223
                         38       1    1fy3              0.555856       0.392753
                         38       1    1fy2z             0.555856       0.878223
                         38       1    1fyz2             0.555856       0.878223
                         38       1    1fz3              0.555856       0.392753

                         39       1    1fx3              0.295632       0.094874
                         39       1    1fx2y             0.295632       0.212144
                         39       1    1fx2z             0.295632       0.212144
                         39       1    1fxy2             0.295632       0.212144
                         39       1    1fxyz             0.295632       0.367444
                         39       1    1fxz2             0.295632       0.212144
                         39       1    1fy3              0.295632       0.094874
                         39       1    1fy2z             0.295632       0.212144
                         39       1    1fyz2             0.295632       0.212144
                         39       1    1fz3              0.295632       0.094874

                         40       1    1gx4              4.797550      83.030772
                         40       1    1gx3y             4.797550     219.678774
                         40       1    1gx3z             4.797550     219.678774
                         40       1    1gx2y2            4.797550     283.604078
                         40       1    1gx2yz            4.797550     491.216673
                         40       1    1gx2z2            4.797550     283.604078
                         40       1    1gxy3             4.797550     219.678774
                         40       1    1gxy2z            4.797550     491.216673
                         40       1    1gxyz2            4.797550     491.216673
                         40       1    1gxz3             4.797550     219.678774
                         40       1    1gy4              4.797550      83.030772
                         40       1    1gy3z             4.797550     219.678774
                         40       1    1gy2z2            4.797550     283.604078
                         40       1    1gyz3             4.797550     219.678774
                         40       1    1gz4              4.797550      83.030772

                         41       1    1gx4              2.063030       8.153154
                         41       1    1gx3y             2.063030      21.571219
                         41       1    1gx3z             2.063030      21.571219
                         41       1    1gx2y2            2.063030      27.848324
                         41       1    1gx2yz            2.063030      48.234712
                         41       1    1gx2z2            2.063030      27.848324
                         41       1    1gxy3             2.063030      21.571219
                         41       1    1gxy2z            2.063030      48.234712
                         41       1    1gxyz2            2.063030      48.234712
                         41       1    1gxz3             2.063030      21.571219
                         41       1    1gy4              2.063030       8.153154
                         41       1    1gy3z             2.063030      21.571219
                         41       1    1gy2z2            2.063030      27.848324
                         41       1    1gyz3             2.063030      21.571219
                         41       1    1gz4              2.063030       8.153154

                         42       1    1gx4              1.105540       1.466443
                         42       1    1gx3y             1.105540       3.879844
                         42       1    1gx3z             1.105540       3.879844
                         42       1    1gx2y2            1.105540       5.008856
                         42       1    1gx2yz            1.105540       8.675594
                         42       1    1gx2z2            1.105540       5.008856
                         42       1    1gxy3             1.105540       3.879844
                         42       1    1gxy2z            1.105540       8.675594
                         42       1    1gxyz2            1.105540       8.675594
                         42       1    1gxz3             1.105540       3.879844
                         42       1    1gy4              1.105540       1.466443
                         42       1    1gy3z             1.105540       3.879844
                         42       1    1gy2z2            1.105540       5.008856
                         42       1    1gyz3             1.105540       3.879844
                         42       1    1gz4              1.105540       1.466443

                         43       1    1gx4              0.666541       0.364720
                         43       1    1gx3y             0.666541       0.964958
                         43       1    1gx3z             0.666541       0.964958
                         43       1    1gx2y2            0.666541       1.245755
                         43       1    1gx2yz            0.666541       2.157711
                         43       1    1gx2z2            0.666541       1.245755
                         43       1    1gxy3             0.666541       0.964958
                         43       1    1gxy2z            0.666541       2.157711
                         43       1    1gxyz2            0.666541       2.157711
                         43       1    1gxz3             0.666541       0.964958
                         43       1    1gy4              0.666541       0.364720
                         43       1    1gy3z             0.666541       0.964958
                         43       1    1gy2z2            0.666541       1.245755
                         43       1    1gyz3             0.666541       0.964958
                         43       1    1gz4              0.666541       0.364720

                         44       1    1gx4              0.340877       0.057687
                         44       1    1gx3y             0.340877       0.152626
                         44       1    1gx3z             0.340877       0.152626
                         44       1    1gx2y2            0.340877       0.197039
                         44       1    1gx2yz            0.340877       0.341282
                         44       1    1gx2z2            0.340877       0.197039
                         44       1    1gxy3             0.340877       0.152626
                         44       1    1gxy2z            0.340877       0.341282
                         44       1    1gxyz2            0.340877       0.341282
                         44       1    1gxz3             0.340877       0.152626
                         44       1    1gy4              0.340877       0.057687
                         44       1    1gy3z             0.340877       0.152626
                         44       1    1gy2z2            0.340877       0.197039
                         44       1    1gyz3             0.340877       0.152626
                         44       1    1gz4              0.340877       0.057687

                         45       1    1hx5              2.962710      25.312432
                         45       1    1hx4y             2.962710      75.937297
                         45       1    1hx4z             2.962710      75.937297
                         45       1    1hx3y2            2.962710     115.996138
                         45       1    1hx3yz            2.962710     200.911204
                         45       1    1hx3z2            2.962710     115.996138
                         45       1    1hx2y3            2.962710     115.996138
                         45       1    1hx2y2z           2.962710     259.375249
                         45       1    1hx2yz2           2.962710     259.375249
                         45       1    1hx2z3            2.962710     115.996138
                         45       1    1hxy4             2.962710      75.937297
                         45       1    1hxy3z            2.962710     200.911204
                         45       1    1hxy2z2           2.962710     259.375249
                         45       1    1hxyz3            2.962710     200.911204
                         45       1    1hxz4             2.962710      75.937297
                         45       1    1hy5              2.962710      25.312432
                         45       1    1hy4z             2.962710      75.937297
                         45       1    1hy3z2            2.962710     115.996138
                         45       1    1hy2z3            2.962710     115.996138
                         45       1    1hyz4             2.962710      75.937297
                         45       1    1hz5              2.962710      25.312432

                         46       1    1hx5              1.117250       1.063734
                         46       1    1hx4y             1.117250       3.191201
                         46       1    1hx4z             1.117250       3.191201
                         46       1    1hx3y2            1.117250       4.874639
                         46       1    1hx3yz            1.117250       8.443123
                         46       1    1hx3z2            1.117250       4.874639
                         46       1    1hx2y3            1.117250       4.874639
                         46       1    1hx2y2z           1.117250      10.900025
                         46       1    1hx2yz2           1.117250      10.900025
                         46       1    1hx2z3            1.117250       4.874639
                         46       1    1hxy4             1.117250       3.191201
                         46       1    1hxy3z            1.117250       8.443123
                         46       1    1hxy2z2           1.117250      10.900025
                         46       1    1hxyz3            1.117250       8.443123
                         46       1    1hxz4             1.117250       3.191201
                         46       1    1hy5              1.117250       1.063734
                         46       1    1hy4z             1.117250       3.191201
                         46       1    1hy3z2            1.117250       4.874639
                         46       1    1hy2z3            1.117250       4.874639
                         46       1    1hyz4             1.117250       3.191201
                         46       1    1hz5              1.117250       1.063734

                         47       1    1hx5              0.634887       0.169476
                         47       1    1hx4y             0.634887       0.508427
                         47       1    1hx4z             0.634887       0.508427
                         47       1    1hx3y2            0.634887       0.776635
                         47       1    1hx3yz            0.634887       1.345172
                         47       1    1hx3z2            0.634887       0.776635
                         47       1    1hx2y3            0.634887       0.776635
                         47       1    1hx2y2z           0.634887       1.736610
                         47       1    1hx2yz2           0.634887       1.736610
                         47       1    1hx2z3            0.634887       0.776635
                         47       1    1hxy4             0.634887       0.508427
                         47       1    1hxy3z            0.634887       1.345172
                         47       1    1hxy2z2           0.634887       1.736610
                         47       1    1hxyz3            0.634887       1.345172
                         47       1    1hxz4             0.634887       0.508427
                         47       1    1hy5              0.634887       0.169476
                         47       1    1hy4z             0.634887       0.508427
                         47       1    1hy3z2            0.634887       0.776635
                         47       1    1hy2z3            0.634887       0.776635
                         47       1    1hyz4             0.634887       0.508427
                         47       1    1hz5              0.634887       0.169476

                         48       1    1ix6              1.026470       0.493431
                         48       1    1ix5y             1.026470       1.636525
                         48       1    1ix5z             1.026470       1.636525
                         48       1    1ix4y2            1.026470       2.834544
                         48       1    1ix4yz            1.026470       4.909575
                         48       1    1ix4z2            1.026470       2.834544
                         48       1    1ix3y3            1.026470       3.353878
                         48       1    1ix3y2z           1.026470       7.499500
                         48       1    1ix3yz2           1.026470       7.499500
                         48       1    1ix3z3            1.026470       3.353878
                         48       1    1ix2y4            1.026470       2.834544
                         48       1    1ix2y3z           1.026470       7.499500
                         48       1    1ix2y2z2          1.026470       9.681812
                         48       1    1ix2yz3           1.026470       7.499500
                         48       1    1ix2z4            1.026470       2.834544
                         48       1    1ixy5             1.026470       1.636525
                         48       1    1ixy4z            1.026470       4.909575
                         48       1    1ixy3z2           1.026470       7.499500
                         48       1    1ixy2z3           1.026470       7.499500
                         48       1    1ixyz4            1.026470       4.909575
                         48       1    1ixz5             1.026470       1.636525
                         48       1    1iy6              1.026470       0.493431
                         48       1    1iy5z             1.026470       1.636525
                         48       1    1iy4z2            1.026470       2.834544
                         48       1    1iy3z3            1.026470       3.353878
                         48       1    1iy2z4            1.026470       2.834544
                         48       1    1iyz5             1.026470       1.636525
                         48       1    1iz6              1.026470       0.493431

     The atoms of this atomic kind are PAW atoms (GAPW):
       Hard Gaussian function radius:                                      1.512
       Rho0 radius:                                                        1.512
       Maximum GTO radius used for PAW projector construction:            24.566

     GAPW Soft Basis Set                                          def2-QZVP_soft

       Number of orbital shell sets:                                          22
       Number of orbital shells:                                              22
       Number of primitive Cartesian functions:                               18
       Number of Cartesian basis functions:                                   86
       Number of spherical basis functions:                                   70
       Norm type:                                                              2

       Normalised Cartesian orbitals:

                        Set   Shell   Orbital            Exponent    Coefficient

                          1       1    1s         

                          2       1    1s         

                          3       1    1s         

                          4       1    1s         

                          5       1    1s                3.219809       1.713100

                          6       1    1s                1.466994       0.950017

                          7       1    1s                0.477654       0.409492

                          8       1    1s                0.216378       0.226110

                          9       1    1s                0.090236       0.117340

                         10       1    1px               2.300291       1.375764
                         10       1    1py               2.300291       1.375764
                         10       1    1pz               2.300291       1.375764

                         11       1    1px               3.069459      -5.824509
                         11       1    1py               3.069459      -5.824509
                         11       1    1pz               3.069459      -5.824509

                         12       1    1px               1.063440       1.539329
                         12       1    1py               1.063440       1.539329
                         12       1    1pz               1.063440       1.539329

                         13       1    1px               0.450222       0.525682
                         13       1    1py               0.450222       0.525682
                         13       1    1pz               0.450222       0.525682

                         14       1    1px               0.182673       0.170228
                         14       1    1py               0.182673       0.170228
                         14       1    1pz               0.182673       0.170228

                         15       1    1px               0.071610       0.052803
                         15       1    1py               0.071610       0.052803
                         15       1    1pz               0.071610       0.052803

                         16       1    1dx2              3.343000      13.603420
                         16       1    1dxy              3.343000      23.561815
                         16       1    1dxz              3.343000      23.561815
                         16       1    1dy2              3.343000      13.603420
                         16       1    1dyz              3.343000      23.561815
                         16       1    1dz2              3.343000      13.603420

                         17       1    1dx2              0.807000       1.130936
                         17       1    1dxy              0.807000       1.958839
                         17       1    1dxz              0.807000       1.958839
                         17       1    1dy2              0.807000       1.130936
                         17       1    1dyz              0.807000       1.958839
                         17       1    1dz2              0.807000       1.130936

                         18       1    1dx2              0.365000       0.282112
                         18       1    1dxy              0.365000       0.488633
                         18       1    1dxz              0.365000       0.488633
                         18       1    1dy2              0.365000       0.282112
                         18       1    1dyz              0.365000       0.488633
                         18       1    1dz2              0.365000       0.282112

                         19       1    1dx2              0.154000       0.062312
                         19       1    1dxy              0.154000       0.107927
                         19       1    1dxz              0.154000       0.107927
                         19       1    1dy2              0.154000       0.062312
                         19       1    1dyz              0.154000       0.107927
                         19       1    1dz2              0.154000       0.062312

                         20       1    1fx3              0.280000       0.083958
                         20       1    1fx2y             0.280000       0.187735
                         20       1    1fx2z             0.280000       0.187735
                         20       1    1fxy2             0.280000       0.187735
                         20       1    1fxyz             0.280000       0.325166
                         20       1    1fxz2             0.280000       0.187735
                         20       1    1fy3              0.280000       0.083958
                         20       1    1fy2z             0.280000       0.187735
                         20       1    1fyz2             0.280000       0.187735
                         20       1    1fz3              0.280000       0.083958

                         21       1    1fx3              0.703000       0.666199
                         21       1    1fx2y             0.703000       1.489666
                         21       1    1fx2z             0.703000       1.489666
                         21       1    1fxy2             0.703000       1.489666
                         21       1    1fxyz             0.703000       2.580177
                         21       1    1fxz2             0.703000       1.489666
                         21       1    1fy3              0.703000       0.666199
                         21       1    1fy2z             0.703000       1.489666
                         21       1    1fyz2             0.703000       1.489666
                         21       1    1fz3              0.703000       0.666199

                         22       1    1gx4              0.597000       0.269380
                         22       1    1gx3y             0.597000       0.712712
                         22       1    1gx3z             0.597000       0.712712
                         22       1    1gx2y2            0.597000       0.920107
                         22       1    1gx2yz            0.597000       1.593672
                         22       1    1gx2z2            0.597000       0.920107
                         22       1    1gxy3             0.597000       0.712712
                         22       1    1gxy2z            0.597000       1.593672
                         22       1    1gxyz2            0.597000       1.593672
                         22       1    1gxz3             0.597000       0.712712
                         22       1    1gy4              0.597000       0.269380
                         22       1    1gy3z             0.597000       0.712712
                         22       1    1gy2z2            0.597000       0.920107
                         22       1    1gyz3             0.597000       0.712712
                         22       1    1gz4              0.597000       0.269380

     AE Potential information for                                            ALL

       Description:                                       All-electron potential
                                          Krack, Parrinello, PCCP 2, 2105 (2000)

       Gaussian exponent of the core charge distribution:               2.704164
       Electronic configuration (s p d ...):                           6   9   0

  2. Atomic kind: N                                     Number of atoms:       1

     Orbital Basis Set                                                 def2-QZVP

       Number of orbital shell sets:                                          17
       Number of orbital shells:                                              17
       Number of primitive Cartesian functions:                               29
       Number of Cartesian basis functions:                                   72
       Number of spherical basis functions:                                   57
       Norm type:                                                              2

       Normalised Cartesian orbitals:

                        Set   Shell   Orbital            Exponent    Coefficient

                          1       1    1s            90726.889210       0.264461
                                                     13590.528801       0.494937
                                                      3092.988378       0.855170
                                                       875.998764       1.389874
                                                       285.744700       2.121698
                                                       103.119134       2.979703
                                                        40.128557       3.622800
                                                        16.528096       3.451840

                          2       1    1s               69.390961       1.621997
                                                        20.428201       6.338076

                          3       1    1s                7.129259       3.109520

                          4       1    1s                3.132430       1.678113

                          5       1    1s                0.987558       0.706044

                          6       1    1s                0.387657       0.350143

                          7       1    1s                0.149099       0.171008

                          8       1    1px             150.057427      -1.834160
                                                        35.491599      -2.406167
                                                        11.247864      -2.652970
                                                         4.090031      -2.482665
                                                         1.622057      -1.818128
                          8       1    1py             150.057427      -1.834160
                                                        35.491599      -2.406167
                                                        11.247864      -2.652970
                                                         4.090031      -2.482665
                                                         1.622057      -1.818128
                          8       1    1pz             150.057427      -1.834160
                                                        35.491599      -2.406167
                                                        11.247864      -2.652970
                                                         4.090031      -2.482665
                                                         1.622057      -1.818128

                          9       1    1px               0.664423       0.855058
                          9       1    1py               0.664423       0.855058
                          9       1    1pz               0.664423       0.855058

                         10       1    1px               0.270998       0.278706
                         10       1    1py               0.270998       0.278706
                         10       1    1pz               0.270998       0.278706

                         11       1    1px               0.106887       0.087116
                         11       1    1py               0.106887       0.087116
                         11       1    1pz               0.106887       0.087116

                         12       1    1dx2              2.837000      10.207357
                         12       1    1dxy              2.837000      17.679661
                         12       1    1dxz              2.837000      17.679661
                         12       1    1dy2              2.837000      10.207357
                         12       1    1dyz              2.837000      17.679661
                         12       1    1dz2              2.837000      10.207357

                         13       1    1dx2              0.968000       1.554860
                         13       1    1dxy              0.968000       2.693097
                         13       1    1dxz              0.968000       2.693097
                         13       1    1dy2              0.968000       1.554860
                         13       1    1dyz              0.968000       2.693097
                         13       1    1dz2              0.968000       1.554860

                         14       1    1dx2              0.335000       0.242794
                         14       1    1dxy              0.335000       0.420531
                         14       1    1dxz              0.335000       0.420531
                         14       1    1dy2              0.335000       0.242794
                         14       1    1dyz              0.335000       0.420531
                         14       1    1dz2              0.335000       0.242794

                         15       1    1fx3              2.027000       7.217310
                         15       1    1fx2y             2.027000      16.138397
                         15       1    1fx2z             2.027000      16.138397
                         15       1    1fxy2             2.027000      16.138397
                         15       1    1fxyz             2.027000      27.952523
                         15       1    1fxz2             2.027000      16.138397
                         15       1    1fy3              2.027000       7.217310
                         15       1    1fy2z             2.027000      16.138397
                         15       1    1fyz2             2.027000      16.138397
                         15       1    1fz3              2.027000       7.217310

                         16       1    1fx3              0.685000       0.628432
                         16       1    1fx2y             0.685000       1.405216
                         16       1    1fx2z             0.685000       1.405216
                         16       1    1fxy2             0.685000       1.405216
                         16       1    1fxyz             0.685000       2.433906
                         16       1    1fxz2             0.685000       1.405216
                         16       1    1fy3              0.685000       0.628432
                         16       1    1fy2z             0.685000       1.405216
                         16       1    1fyz2             0.685000       1.405216
                         16       1    1fz3              0.685000       0.628432

                         17       1    1gx4              1.427000       2.958703
                         17       1    1gx3y             1.427000       7.827992
                         17       1    1gx3z             1.427000       7.827992
                         17       1    1gx2y2            1.427000      10.105894
                         17       1    1gx2yz            1.427000      17.503922
                         17       1    1gx2z2            1.427000      10.105894
                         17       1    1gxy3             1.427000       7.827992
                         17       1    1gxy2z            1.427000      17.503922
                         17       1    1gxyz2            1.427000      17.503922
                         17       1    1gxz3             1.427000       7.827992
                         17       1    1gy4              1.427000       2.958703
                         17       1    1gy3z             1.427000       7.827992
                         17       1    1gy2z2            1.427000      10.105894
                         17       1    1gyz3             1.427000       7.827992
                         17       1    1gz4              1.427000       2.958703

     RI Auxiliary Basis Set                                                RI-5Z

       Number of orbital shell sets:                                          39
       Number of orbital shells:                                              39
       Number of primitive Cartesian functions:                               39
       Number of Cartesian basis functions:                                  287
       Number of spherical basis functions:                                  193
       Norm type:                                                              2

       Normalised Cartesian orbitals:

                        Set   Shell   Orbital            Exponent    Coefficient

                          1       1    1s              330.814000      55.283815

                          2       1    1s               72.692500      17.743010

                          3       1    1s               18.515300       6.361480

                          4       1    1s                8.569100       3.569534

                          5       1    1s                3.809660       1.943456

                          6       1    1s                2.248340       1.308599

                          7       1    1s                1.312410       0.873901

                          8       1    1s                0.758637       0.579343

                          9       1    1s                0.378879       0.344180

                         10       1    1s                0.175888       0.193570

                         11       1    1px              66.987000     273.167010
                         11       1    1py              66.987000     273.167010
                         11       1    1pz              66.987000     273.167010

                         12       1    1px              18.749800      55.614225
                         12       1    1py              18.749800      55.614225
                         12       1    1pz              18.749800      55.614225

                         13       1    1px               7.480640      17.634515
                         13       1    1py               7.480640      17.634515
                         13       1    1pz               7.480640      17.634515

                         14       1    1px               3.761240       7.466274
                         14       1    1py               3.761240       7.466274
                         14       1    1pz               3.761240       7.466274

                         15       1    1px               2.075610       3.551177
                         15       1    1py               2.075610       3.551177
                         15       1    1pz               2.075610       3.551177

                         16       1    1px               0.990652       1.408775
                         16       1    1py               0.990652       1.408775
                         16       1    1pz               0.990652       1.408775

                         17       1    1px               0.519429       0.628562
                         17       1    1py               0.519429       0.628562
                         17       1    1pz               0.519429       0.628562

                         18       1    1px               0.311991       0.332367
                         18       1    1py               0.311991       0.332367
                         18       1    1pz               0.311991       0.332367

                         19       1    1dx2             17.120900     237.181597
                         19       1    1dxy             17.120900     410.810577
                         19       1    1dxz             17.120900     410.810577
                         19       1    1dy2             17.120900     237.181597
                         19       1    1dyz             17.120900     410.810577
                         19       1    1dz2             17.120900     237.181597

                         20       1    1dx2              5.810520      35.791979
                         20       1    1dxy              5.810520      61.993525
                         20       1    1dxz              5.810520      61.993525
                         20       1    1dy2              5.810520      35.791979
                         20       1    1dyz              5.810520      61.993525
                         20       1    1dz2              5.810520      35.791979

                         21       1    1dx2              3.550630      15.116246
                         21       1    1dxy              3.550630      26.182105
                         21       1    1dxz              3.550630      26.182105
                         21       1    1dy2              3.550630      15.116246
                         21       1    1dyz              3.550630      26.182105
                         21       1    1dz2              3.550630      15.116246

                         22       1    1dx2              2.262180       6.868027
                         22       1    1dxy              2.262180      11.895771
                         22       1    1dxz              2.262180      11.895771
                         22       1    1dy2              2.262180       6.868027
                         22       1    1dyz              2.262180      11.895771
                         22       1    1dz2              2.262180       6.868027

                         23       1    1dx2              1.105370       1.961317
                         23       1    1dxy              1.105370       3.397101
                         23       1    1dxz              1.105370       3.397101
                         23       1    1dy2              1.105370       1.961317
                         23       1    1dyz              1.105370       3.397101
                         23       1    1dz2              1.105370       1.961317

                         24       1    1dx2              0.568580       0.612766
                         24       1    1dxy              0.568580       1.061342
                         24       1    1dxz              0.568580       1.061342
                         24       1    1dy2              0.568580       0.612766
                         24       1    1dyz              0.568580       1.061342
                         24       1    1dz2              0.568580       0.612766

                         25       1    1dx2              0.281938       0.179547
                         25       1    1dxy              0.281938       0.310985
                         25       1    1dxz              0.281938       0.310985
                         25       1    1dy2              0.281938       0.179547
                         25       1    1dyz              0.281938       0.310985
                         25       1    1dz2              0.281938       0.179547

                         26       1    1fx3             10.195600     273.453335
                         26       1    1fx2y            10.195600     611.460245
                         26       1    1fx2z            10.195600     611.460245
                         26       1    1fxy2            10.195600     611.460245
                         26       1    1fxyz            10.195600    1059.080212
                         26       1    1fxz2            10.195600     611.460245
                         26       1    1fy3             10.195600     273.453335
                         26       1    1fy2z            10.195600     611.460245
                         26       1    1fyz2            10.195600     611.460245
                         26       1    1fz3             10.195600     273.453335

                         27       1    1fx3              4.611490      45.877243
                         27       1    1fx2y             4.611490     102.584634
                         27       1    1fx2z             4.611490     102.584634
                         27       1    1fxy2             4.611490     102.584634
                         27       1    1fxyz             4.611490     177.681798
                         27       1    1fxz2             4.611490     102.584634
                         27       1    1fy3              4.611490      45.877243
                         27       1    1fy2z             4.611490     102.584634
                         27       1    1fyz2             4.611490     102.584634
                         27       1    1fz3              4.611490      45.877243

                         28       1    1fx3              2.818460      15.152391
                         28       1    1fx2y             2.818460      33.881776
                         28       1    1fx2z             2.818460      33.881776
                         28       1    1fxy2             2.818460      33.881776
                         28       1    1fxyz             2.818460      58.684958
                         28       1    1fxz2             2.818460      33.881776
                         28       1    1fy3              2.818460      15.152391
                         28       1    1fy2z             2.818460      33.881776
                         28       1    1fyz2             2.818460      33.881776
                         28       1    1fz3              2.818460      15.152391

                         29       1    1fx3              1.544330       3.913990
                         29       1    1fx2y             1.544330       8.751947
                         29       1    1fx2z             1.544330       8.751947
                         29       1    1fxy2             1.544330       8.751947
                         29       1    1fxyz             1.544330      15.158817
                         29       1    1fxz2             1.544330       8.751947
                         29       1    1fy3              1.544330       3.913990
                         29       1    1fy2z             1.544330       8.751947
                         29       1    1fyz2             1.544330       8.751947
                         29       1    1fz3              1.544330       3.913990

                         30       1    1fx3              0.895075       1.147197
                         30       1    1fx2y             0.895075       2.565211
                         30       1    1fx2z             0.895075       2.565211
                         30       1    1fxy2             0.895075       2.565211
                         30       1    1fxyz             0.895075       4.443076
                         30       1    1fxz2             0.895075       2.565211
                         30       1    1fy3              0.895075       1.147197
                         30       1    1fy2z             0.895075       2.565211
                         30       1    1fyz2             0.895075       2.565211
                         30       1    1fz3              0.895075       1.147197

                         31       1    1fx3              0.470440       0.269829
[...]

 Extrapolation method: initial_guess


 SCF WAVEFUNCTION OPTIMIZATION

  Step     Update method      Time    Convergence         Total energy    Change
  ------------------------------------------------------------------------------
     1 P_Mix/Diag. 0.40E+00    4.2     0.94497097      -395.0432179844 -3.95E+02
     2 P_Mix/Diag. 0.40E+00    3.4     0.33075040      -395.4088185444 -3.66E-01
     3 P_Mix/Diag. 0.40E+00    3.3     0.40041858      -395.5641459814 -1.55E-01
     4 P_Mix/Diag. 0.40E+00    3.3     0.23700766      -395.6565776514 -9.24E-02
     5 P_Mix/Diag. 0.40E+00    3.3     0.19318962      -395.6859615465 -2.94E-02
     6 P_Mix/Diag. 0.40E+00    3.3     0.21022947      -395.7135376691 -2.76E-02
     7 P_Mix/Diag. 0.40E+00    3.2     0.19882257      -395.7032006665  1.03E-02
     8 P_Mix/Diag. 0.40E+00    3.3     0.20081050      -395.7178579700 -1.47E-02
     9 P_Mix/Diag. 0.40E+00    3.2     0.20058377      -395.7014696065  1.64E-02
    10 P_Mix/Diag. 0.40E+00    3.3     0.20055913      -395.7159458512 -1.45E-02
    11 P_Mix/Diag. 0.40E+00    3.4     0.20066075      -395.7000504749  1.59E-02
    12 P_Mix/Diag. 0.40E+00    3.3     0.20032172      -395.7151700723 -1.51E-02
    13 P_Mix/Diag. 0.40E+00    3.2     0.20049973      -395.6997362432  1.54E-02
    14 P_Mix/Diag. 0.40E+00    3.2     0.20027799      -395.7150518578 -1.53E-02
    15 P_Mix/Diag. 0.40E+00    3.3     0.20040107      -395.6997262281  1.53E-02
    16 P_Mix/Diag. 0.40E+00    3.3     0.20029616      -395.7150641329 -1.53E-02
    17 P_Mix/Diag. 0.40E+00    3.2     0.20035828      -395.6997446770  1.53E-02
    18 P_Mix/Diag. 0.40E+00    3.3     0.20031345      -395.7150774081 -1.53E-02
    19 P_Mix/Diag. 0.40E+00    3.2     0.20034099      -395.6997529261  1.53E-02
    20 P_Mix/Diag. 0.40E+00    3.2     0.20032223      -395.7150821550 -1.53E-02
    21 P_Mix/Diag. 0.40E+00    3.2     0.20033388      -395.6997552716  1.53E-02
    22 P_Mix/Diag. 0.40E+00    3.2     0.20032600      -395.7150834018 -1.53E-02
    23 P_Mix/Diag. 0.40E+00    3.2     0.20033088      -395.6997558344  1.53E-02
    24 P_Mix/Diag. 0.40E+00    3.3     0.20032757      -395.7150837040 -1.53E-02
    25 P_Mix/Diag. 0.40E+00    3.2     0.20032961      -395.6997559759  1.53E-02
    26 P_Mix/Diag. 0.40E+00    3.3     0.20032822      -395.7150837869 -1.53E-02
    27 P_Mix/Diag. 0.40E+00    3.4     0.20032907      -395.6997560190  1.53E-02
    28 P_Mix/Diag. 0.40E+00    3.2     0.20032850      -395.7150838141 -1.53E-02
    29 P_Mix/Diag. 0.40E+00    3.3     0.20032885      -395.6997560337  1.53E-02
    30 P_Mix/Diag. 0.40E+00    3.2     0.20032861      -395.7150838235 -1.53E-02
    31 P_Mix/Diag. 0.40E+00    3.2     0.20032876      -395.6997560385  1.53E-02
    32 P_Mix/Diag. 0.40E+00    3.3     0.20032866      -395.7150838264 -1.53E-02
    33 P_Mix/Diag. 0.40E+00    3.2     0.20032872      -395.6997560398  1.53E-02
    34 P_Mix/Diag. 0.40E+00    3.3     0.20032868      -395.7150838272 -1.53E-02
    35 P_Mix/Diag. 0.40E+00    3.3     0.20032870      -395.6997560401  1.53E-02
    36 P_Mix/Diag. 0.40E+00    3.1     0.20032869      -395.7150838274 -1.53E-02
    37 P_Mix/Diag. 0.40E+00    3.3     0.20032870      -395.6997560401  1.53E-02
    38 P_Mix/Diag. 0.40E+00    3.3     0.20032869      -395.7150838274 -1.53E-02
    39 P_Mix/Diag. 0.40E+00    3.3     0.20032870      -395.6997560400  1.53E-02
    40 P_Mix/Diag. 0.40E+00    3.4     0.20032869      -395.7150838273 -1.53E-02
    41 P_Mix/Diag. 0.40E+00    3.4     0.20032869      -395.6997560400  1.53E-02
    42 P_Mix/Diag. 0.40E+00    3.5     0.20032869      -395.7150838273 -1.53E-02
    43 P_Mix/Diag. 0.40E+00    3.5     0.20032869      -395.6997560400  1.53E-02
    44 P_Mix/Diag. 0.40E+00    3.4     0.20032869      -395.7150838273 -1.53E-02
    45 P_Mix/Diag. 0.40E+00    3.4     0.20032869      -395.6997560400  1.53E-02
    46 P_Mix/Diag. 0.40E+00    3.3     0.20032869      -395.7150838273 -1.53E-02
    47 P_Mix/Diag. 0.40E+00    3.3     0.20032869      -395.6997560400  1.53E-02
    48 P_Mix/Diag. 0.40E+00    3.2     0.20032869      -395.7150838273 -1.53E-02
    49 P_Mix/Diag. 0.40E+00    3.2     0.20032869      -395.6997560400  1.53E-02
    50 P_Mix/Diag. 0.40E+00    3.4     0.20032869      -395.7150838273 -1.53E-02
    51 P_Mix/Diag. 0.40E+00    3.4     0.20032869      -395.6997560400  1.53E-02
    52 P_Mix/Diag. 0.40E+00    3.3     0.20032869      -395.7150838273 -1.53E-02
    53 P_Mix/Diag. 0.40E+00    3.2     0.20032869      -395.6997560400  1.53E-02
    54 P_Mix/Diag. 0.40E+00    3.2     0.20032869      -395.7150838273 -1.53E-02
    55 P_Mix/Diag. 0.40E+00    3.2     0.20032869      -395.6997560400  1.53E-02
    56 P_Mix/Diag. 0.40E+00    3.2     0.20032869      -395.7150838273 -1.53E-02
    57 P_Mix/Diag. 0.40E+00    3.3     0.20032869      -395.6997560400  1.53E-02
    58 P_Mix/Diag. 0.40E+00    3.2     0.20032869      -395.7150838273 -1.53E-02
    59 P_Mix/Diag. 0.40E+00    3.2     0.20032869      -395.6997560400  1.53E-02
    60 P_Mix/Diag. 0.40E+00    3.3     0.20032869      -395.7150838273 -1.53E-02
    61 P_Mix/Diag. 0.40E+00    3.3     0.20032869      -395.6997560400  1.53E-02
    62 P_Mix/Diag. 0.40E+00    3.3     0.20032869      -395.7150838273 -1.53E-02
    63 P_Mix/Diag. 0.40E+00    3.3     0.20032869      -395.6997560400  1.53E-02
    64 P_Mix/Diag. 0.40E+00    3.3     0.20032869      -395.7150838273 -1.53E-02
    65 P_Mix/Diag. 0.40E+00    3.3     0.20032869      -395.6997560400  1.53E-02
    66 P_Mix/Diag. 0.40E+00    3.3     0.20032869      -395.7150838273 -1.53E-02
    67 P_Mix/Diag. 0.40E+00    3.3     0.20032869      -395.6997560400  1.53E-02
    68 P_Mix/Diag. 0.40E+00    3.3     0.20032869      -395.7150838273 -1.53E-02
    69 P_Mix/Diag. 0.40E+00    3.3     0.20032869      -395.6997560400  1.53E-02
    70 P_Mix/Diag. 0.40E+00    3.4     0.20032869      -395.7150838273 -1.53E-02
    71 P_Mix/Diag. 0.40E+00    3.2     0.20032869      -395.6997560400  1.53E-02
    72 P_Mix/Diag. 0.40E+00    3.3     0.20032869      -395.7150838273 -1.53E-02
    73 P_Mix/Diag. 0.40E+00    3.3     0.20032869      -395.6997560400  1.53E-02
    74 P_Mix/Diag. 0.40E+00    3.4     0.20032869      -395.7150838273 -1.53E-02
    75 P_Mix/Diag. 0.40E+00    3.4     0.20032869      -395.6997560400  1.53E-02
    76 P_Mix/Diag. 0.40E+00    3.3     0.20032869      -395.7150838273 -1.53E-02
    77 P_Mix/Diag. 0.40E+00    3.3     0.20032869      -395.6997560400  1.53E-02
    78 P_Mix/Diag. 0.40E+00    3.3     0.20032869      -395.7150838273 -1.53E-02
    79 P_Mix/Diag. 0.40E+00    3.3     0.20032869      -395.6997560400  1.53E-02
    80 P_Mix/Diag. 0.40E+00    3.3     0.20032869      -395.7150838273 -1.53E-02
    81 P_Mix/Diag. 0.40E+00    3.3     0.20032869      -395.6997560400  1.53E-02
    82 P_Mix/Diag. 0.40E+00    3.3     0.20032869      -395.7150838273 -1.53E-02
    83 P_Mix/Diag. 0.40E+00    3.3     0.20032869      -395.6997560400  1.53E-02
    84 P_Mix/Diag. 0.40E+00    3.3     0.20032869      -395.7150838273 -1.53E-02
    85 P_Mix/Diag. 0.40E+00    3.4     0.20032869      -395.6997560400  1.53E-02
    86 P_Mix/Diag. 0.40E+00    3.3     0.20032869      -395.7150838273 -1.53E-02
    87 P_Mix/Diag. 0.40E+00    3.4     0.20032869      -395.6997560400  1.53E-02
    88 P_Mix/Diag. 0.40E+00    3.3     0.20032869      -395.7150838273 -1.53E-02
    89 P_Mix/Diag. 0.40E+00    3.3     0.20032869      -395.6997560400  1.53E-02
    90 P_Mix/Diag. 0.40E+00    3.3     0.20032869      -395.7150838273 -1.53E-02
    91 P_Mix/Diag. 0.40E+00    3.3     0.20032869      -395.6997560400  1.53E-02
    92 P_Mix/Diag. 0.40E+00    3.3     0.20032869      -395.7150838273 -1.53E-02
    93 P_Mix/Diag. 0.40E+00    3.4     0.20032869      -395.6997560400  1.53E-02
    94 P_Mix/Diag. 0.40E+00    3.4     0.20032869      -395.7150838273 -1.53E-02
    95 P_Mix/Diag. 0.40E+00    3.3     0.20032869      -395.6997560400  1.53E-02
    96 P_Mix/Diag. 0.40E+00    3.4     0.20032869      -395.7150838273 -1.53E-02
    97 P_Mix/Diag. 0.40E+00    3.4     0.20032869      -395.6997560400  1.53E-02
    98 P_Mix/Diag. 0.40E+00    3.3     0.20032869      -395.7150838273 -1.53E-02
    99 P_Mix/Diag. 0.40E+00    3.3     0.20032869      -395.6997560400  1.53E-02
   100 P_Mix/Diag. 0.40E+00    3.3     0.20032869      -395.7150838273 -1.53E-02
   101 P_Mix/Diag. 0.40E+00    3.3     0.20032869      -395.6997560400  1.53E-02
   102 P_Mix/Diag. 0.40E+00    3.3     0.20032869      -395.7150838273 -1.53E-02
   103 P_Mix/Diag. 0.40E+00    3.3     0.20032869      -395.6997560400  1.53E-02
   104 P_Mix/Diag. 0.40E+00    3.3     0.20032869      -395.7150838273 -1.53E-02
   105 P_Mix/Diag. 0.40E+00    3.3     0.20032869      -395.6997560400  1.53E-02
   106 P_Mix/Diag. 0.40E+00    3.3     0.20032869      -395.7150838273 -1.53E-02
   107 P_Mix/Diag. 0.40E+00    3.3     0.20032869      -395.6997560400  1.53E-02
   108 P_Mix/Diag. 0.40E+00    3.3     0.20032869      -395.7150838273 -1.53E-02
   109 P_Mix/Diag. 0.40E+00    3.4     0.20032869      -395.6997560400  1.53E-02
   110 P_Mix/Diag. 0.40E+00    3.3     0.20032869      -395.7150838273 -1.53E-02
   111 P_Mix/Diag. 0.40E+00    3.3     0.20032869      -395.6997560400  1.53E-02
   112 P_Mix/Diag. 0.40E+00    3.3     0.20032869      -395.7150838273 -1.53E-02
   113 P_Mix/Diag. 0.40E+00    3.3     0.20032869      -395.6997560400  1.53E-02
   114 P_Mix/Diag. 0.40E+00    3.3     0.20032869      -395.7150838273 -1.53E-02
   115 P_Mix/Diag. 0.40E+00    3.3     0.20032869      -395.6997560400  1.53E-02
   116 P_Mix/Diag. 0.40E+00    3.4     0.20032869      -395.7150838273 -1.53E-02
   117 P_Mix/Diag. 0.40E+00    3.4     0.20032869      -395.6997560400  1.53E-02
   118 P_Mix/Diag. 0.40E+00    3.3     0.20032869      -395.7150838273 -1.53E-02
   119 P_Mix/Diag. 0.40E+00    3.3     0.20032869      -395.6997560400  1.53E-02
   120 P_Mix/Diag. 0.40E+00    3.3     0.20032869      -395.7150838273 -1.53E-02
   121 P_Mix/Diag. 0.40E+00    3.3     0.20032869      -395.6997560400  1.53E-02
   122 P_Mix/Diag. 0.40E+00    3.2     0.20032869      -395.7150838273 -1.53E-02
   123 P_Mix/Diag. 0.40E+00    3.3     0.20032869      -395.6997560400  1.53E-02
   124 P_Mix/Diag. 0.40E+00    3.3     0.20032869      -395.7150838273 -1.53E-02
   125 P_Mix/Diag. 0.40E+00    3.2     0.20032869      -395.6997560400  1.53E-02
   126 P_Mix/Diag. 0.40E+00    3.3     0.20032869      -395.7150838273 -1.53E-02
   127 P_Mix/Diag. 0.40E+00    3.2     0.20032869      -395.6997560400  1.53E-02
   128 P_Mix/Diag. 0.40E+00    3.3     0.20032869      -395.7150838273 -1.53E-02
   129 P_Mix/Diag. 0.40E+00    3.3     0.20032869      -395.6997560400  1.53E-02
   130 P_Mix/Diag. 0.40E+00    3.3     0.20032869      -395.7150838273 -1.53E-02
   131 P_Mix/Diag. 0.40E+00    3.3     0.20032869      -395.6997560400  1.53E-02
   132 P_Mix/Diag. 0.40E+00    3.3     0.20032869      -395.7150838273 -1.53E-02
   133 P_Mix/Diag. 0.40E+00    3.3     0.20032869      -395.6997560400  1.53E-02
   134 P_Mix/Diag. 0.40E+00    3.3     0.20032869      -395.7150838273 -1.53E-02
   135 P_Mix/Diag. 0.40E+00    3.2     0.20032869      -395.6997560400  1.53E-02
   136 P_Mix/Diag. 0.40E+00    3.2     0.20032869      -395.7150838273 -1.53E-02
   137 P_Mix/Diag. 0.40E+00    3.3     0.20032869      -395.6997560400  1.53E-02
   138 P_Mix/Diag. 0.40E+00    3.4     0.20032869      -395.7150838273 -1.53E-02
   139 P_Mix/Diag. 0.40E+00    3.3     0.20032869      -395.6997560400  1.53E-02
   140 P_Mix/Diag. 0.40E+00    3.3     0.20032869      -395.7150838273 -1.53E-02
   141 P_Mix/Diag. 0.40E+00    3.3     0.20032869      -395.6997560400  1.53E-02
   142 P_Mix/Diag. 0.40E+00    3.4     0.20032869      -395.7150838273 -1.53E-02
   143 P_Mix/Diag. 0.40E+00    3.4     0.20032869      -395.6997560400  1.53E-02
   144 P_Mix/Diag. 0.40E+00    3.4     0.20032869      -395.7150838273 -1.53E-02
   145 P_Mix/Diag. 0.40E+00    3.3     0.20032869      -395.6997560400  1.53E-02
   146 P_Mix/Diag. 0.40E+00    3.4     0.20032869      -395.7150838273 -1.53E-02
   147 P_Mix/Diag. 0.40E+00    3.4     0.20032869      -395.6997560400  1.53E-02
   148 P_Mix/Diag. 0.40E+00    3.3     0.20032869      -395.7150838273 -1.53E-02
   149 P_Mix/Diag. 0.40E+00    3.2     0.20032869      -395.6997560400  1.53E-02
   150 P_Mix/Diag. 0.40E+00    3.2     0.20032869      -395.7150838273 -1.53E-02
   151 P_Mix/Diag. 0.40E+00    3.2     0.20032869      -395.6997560400  1.53E-02
   152 P_Mix/Diag. 0.40E+00    3.2     0.20032869      -395.7150838273 -1.53E-02
   153 P_Mix/Diag. 0.40E+00    3.3     0.20032869      -395.6997560400  1.53E-02
   154 P_Mix/Diag. 0.40E+00    3.3     0.20032869      -395.7150838273 -1.53E-02
   155 P_Mix/Diag. 0.40E+00    3.2     0.20032869      -395.6997560400  1.53E-02
   156 P_Mix/Diag. 0.40E+00    3.2     0.20032869      -395.7150838273 -1.53E-02
   157 P_Mix/Diag. 0.40E+00    3.2     0.20032869      -395.6997560400  1.53E-02
   158 P_Mix/Diag. 0.40E+00    3.3     0.20032869      -395.7150838273 -1.53E-02
   159 P_Mix/Diag. 0.40E+00    3.3     0.20032869      -395.6997560400  1.53E-02
   160 P_Mix/Diag. 0.40E+00    3.3     0.20032869      -395.7150838273 -1.53E-02
   161 P_Mix/Diag. 0.40E+00    3.3     0.20032869      -395.6997560400  1.53E-02
   162 P_Mix/Diag. 0.40E+00    3.2     0.20032869      -395.7150838273 -1.53E-02
   163 P_Mix/Diag. 0.40E+00    3.3     0.20032869      -395.6997560400  1.53E-02
   164 P_Mix/Diag. 0.40E+00    3.2     0.20032869      -395.7150838273 -1.53E-02
   165 P_Mix/Diag. 0.40E+00    3.3     0.20032869      -395.6997560400  1.53E-02
   166 P_Mix/Diag. 0.40E+00    3.3     0.20032869      -395.7150838273 -1.53E-02
   167 P_Mix/Diag. 0.40E+00    3.3     0.20032869      -395.6997560400  1.53E-02
   168 P_Mix/Diag. 0.40E+00    3.2     0.20032869      -395.7150838273 -1.53E-02
   169 P_Mix/Diag. 0.40E+00    3.3     0.20032869      -395.6997560400  1.53E-02
   170 P_Mix/Diag. 0.40E+00    3.4     0.20032869      -395.7150838273 -1.53E-02
   171 P_Mix/Diag. 0.40E+00    3.3     0.20032869      -395.6997560400  1.53E-02
   172 P_Mix/Diag. 0.40E+00    3.3     0.20032869      -395.7150838273 -1.53E-02
   173 P_Mix/Diag. 0.40E+00    3.4     0.20032869      -395.6997560400  1.53E-02
   174 P_Mix/Diag. 0.40E+00    3.3     0.20032869      -395.7150838273 -1.53E-02
   175 P_Mix/Diag. 0.40E+00    3.3     0.20032869      -395.6997560400  1.53E-02
   176 P_Mix/Diag. 0.40E+00    3.2     0.20032869      -395.7150838273 -1.53E-02
   177 P_Mix/Diag. 0.40E+00    3.3     0.20032869      -395.6997560400  1.53E-02
   178 P_Mix/Diag. 0.40E+00    3.3     0.20032869      -395.7150838273 -1.53E-02
   179 P_Mix/Diag. 0.40E+00    3.3     0.20032869      -395.6997560400  1.53E-02
   180 P_Mix/Diag. 0.40E+00    3.2     0.20032869      -395.7150838273 -1.53E-02
   181 P_Mix/Diag. 0.40E+00    3.3     0.20032869      -395.6997560400  1.53E-02
   182 P_Mix/Diag. 0.40E+00    3.3     0.20032869      -395.7150838273 -1.53E-02
   183 P_Mix/Diag. 0.40E+00    3.3     0.20032869      -395.6997560400  1.53E-02
   184 P_Mix/Diag. 0.40E+00    3.3     0.20032869      -395.7150838273 -1.53E-02
   185 P_Mix/Diag. 0.40E+00    3.4     0.20032869      -395.6997560400  1.53E-02
   186 P_Mix/Diag. 0.40E+00    3.3     0.20032869      -395.7150838273 -1.53E-02
   187 P_Mix/Diag. 0.40E+00    3.3     0.20032869      -395.6997560400  1.53E-02
   188 P_Mix/Diag. 0.40E+00    3.3     0.20032869      -395.7150838273 -1.53E-02
   189 P_Mix/Diag. 0.40E+00    3.2     0.20032869      -395.6997560400  1.53E-02
   190 P_Mix/Diag. 0.40E+00    3.2     0.20032869      -395.7150838273 -1.53E-02
   191 P_Mix/Diag. 0.40E+00    3.3     0.20032869      -395.6997560400  1.53E-02
   192 P_Mix/Diag. 0.40E+00    3.4     0.20032869      -395.7150838273 -1.53E-02
   193 P_Mix/Diag. 0.40E+00    3.3     0.20032869      -395.6997560400  1.53E-02
   194 P_Mix/Diag. 0.40E+00    3.3     0.20032869      -395.7150838273 -1.53E-02
   195 P_Mix/Diag. 0.40E+00    3.3     0.20032869      -395.6997560400  1.53E-02
   196 P_Mix/Diag. 0.40E+00    3.4     0.20032869      -395.7150838273 -1.53E-02
   197 P_Mix/Diag. 0.40E+00    3.3     0.20032869      -395.6997560400  1.53E-02
   198 P_Mix/Diag. 0.40E+00    3.2     0.20032869      -395.7150838273 -1.53E-02
   199 P_Mix/Diag. 0.40E+00    3.3     0.20032869      -395.6997560400  1.53E-02
   200 P_Mix/Diag. 0.40E+00    3.3     0.20032869      -395.7150838273 -1.53E-02

  Leaving inner SCF loop after reaching   200 steps.


  Electronic density on regular grids:        -12.7676905060        9.2323094940
  Core density on regular grids:               22.0000000000        0.0000000000
  Hard and soft densities (Lebedev):          -29.6577953105      -20.4254858247
  Total Rho_soft + Rho1_hard - Rho1_soft      -21.9999999918
  Total charge density (r-space):               0.0000000082
  Total Rho_soft + Rho0_soft (g-space):        -0.0000001402

  Overlap energy of the core charge distribution:               0.00000202124853
  Self energy of the core charge distribution:               -195.40731662486505
  Core Hamiltonian energy:                                   -200.53572461453521
  Hartree energy:                                              31.90256517790160
  Exchange-correlation energy:                                 -6.52640262523743

  GAPW| Exc from hard and soft atomic rho1:                   -23.41966429490794
  GAPW| local Eh = 1 center integrals:                         -1.72854286691596

  Total energy:                                              -395.71508382731150

 *** WARNING in qs_scf.F:542 :: SCF run NOT converged ***


 !-----------------------------------------------------------------------------!
                     Mulliken Population Analysis

 #  Atom  Element  Kind  Atomic population                           Net charge
       1     P        1         16.526426                             -1.526426
       2     N        2          5.473574                              1.526426
 # Total charge                             22.000000                 -0.000000

 !-----------------------------------------------------------------------------!

 !-----------------------------------------------------------------------------!
                           Hirshfeld Charges

  #Atom  Element  Kind  Ref Charge     Population                    Net charge
      1       P      1      15.000         16.504                        -1.504
      2       N      2       7.000          5.473                         1.527

  Total Charge                                                            0.023
 !-----------------------------------------------------------------------------!

 *******************************************************************************
 *   ___                                                                       *
 *  /   \                                                                      *
 * [ABORT]                                                                     *
 *  \___/               SCF not converged: not possible to run MP2             *
 *    |                                                                        *
 *  O/|                                                                        *
 * /| |                                                                        *
 * / \                                                               mp2.F:199 *
 *******************************************************************************


 ===== Routine Calling Stack ===== 

            2 qs_energies
            1 CP2K
--------------------------------------------------------------------------
MPI_ABORT was invoked on rank 0 in communicator MPI_COMM_WORLD
with errorcode 1.

NOTE: invoking MPI_ABORT causes Open MPI to kill all MPI processes.
You may or may not see output from other processes, depending on
exactly when Open MPI kills them.
--------------------------------------------------------------------------
