 DBCSR| CPU Multiplication driver                                           BLAS
 DBCSR| Multrec recursion limit                                              512
 DBCSR| Multiplication stack size                                           1000
 DBCSR| Maximum elements for images                                    UNLIMITED
 DBCSR| Multiplicative factor virtual images                                   1
 DBCSR| Use multiplication densification                                       T
 DBCSR| Multiplication size stacks                                             3
 DBCSR| Number of 3D layers                                               SINGLE
 DBCSR| Use MPI memory allocation                                              T
 DBCSR| Use RMA algorithm                                                      F
 DBCSR| Use Communication thread                                               T
 DBCSR| Communication thread load                                             87


  **** **** ******  **  PROGRAM STARTED AT               2019-05-31 10:45:31.929
 ***** ** ***  *** **   PROGRAM STARTED ON                                tcopt4
 **    ****   ******    PROGRAM STARTED BY                               wilhelm
 ***** **    ** ** **   PROGRAM PROCESS ID                                 44358
  **** **  *******  **  PROGRAM STARTED IN /data/wilhelm/2_job_test/11_GW100/3_c
                                           alcs/09_Na4

 CP2K| version string:                    CP2K version 7.0 (Development Version)
 CP2K| source code revision number:                                  git:026fb12
 CP2K| cp2kflags: libint fftw3 libxc pexsi elpa=201705 parallel mpi3 scalapack q
 CP2K|            uip libderiv_max_am1=5 libint_max_am=6
 CP2K| is freely available from                            https://www.cp2k.org/
 CP2K| Program compiled at                         Sat May 11 13:15:02 CEST 2019
 CP2K| Program compiled on                                                tcopt4
 CP2K| Program compiled for                            local_valgrind_March_2019
 CP2K| Data directory path              /data/wilhelm/1_git_repository/cp2k/data
 CP2K| Input file name                                                    GW.inp

 GLOBAL| Force Environment number                                              1
 GLOBAL| Basis set file name                              BASIS_def2_QZVP_RI_ALL
 GLOBAL| Potential file name                                           POTENTIAL
 GLOBAL| MM Potential file name                                     MM_POTENTIAL
 GLOBAL| Coordinate file name                                         09_Na4.xyz
 GLOBAL| Method name                                                        CP2K
 GLOBAL| Project name                                                   ALL_ELEC
 GLOBAL| Preferred FFT library                                             FFTW3
 GLOBAL| Preferred diagonalization lib.                                       SL
 GLOBAL| Run type                                                         ENERGY
 GLOBAL| All-to-all communication in single precision                          F
 GLOBAL| FFTs using library dependent lengths                                  F
 GLOBAL| Global print level                                               MEDIUM
 GLOBAL| MPI I/O enabled                                                       T
 GLOBAL| Total number of message passing processes                            24
 GLOBAL| Number of threads for this process                                    1
 GLOBAL| This output is from process                                           0
 GLOBAL| CPU model name :  Intel(R) Xeon(R) CPU E5-2697 v3 @ 2.60GHz

 MEMORY| system memory details [Kb]
 MEMORY|                        rank 0           min           max       average
 MEMORY| MemTotal            396954008     396954008     396954008     396954008
 MEMORY| MemFree             168286292     168286292     168286292     168286292
 MEMORY| Buffers                306104        306104        306104        306104
 MEMORY| Cached               14644924      14644924      14644924      14644924
 MEMORY| Slab                   569020        569020        569020        569020
 MEMORY| SReclaimable           427992        427992        427992        427992
 MEMORY| MemLikelyFree       183665312     183665312     183665312     183665312


 *** Fundamental physical constants (SI units) ***

 *** Literature: B. J. Mohr and B. N. Taylor,
 ***             CODATA recommended values of the fundamental physical
 ***             constants: 2006, Web Version 5.1
 ***             http://physics.nist.gov/constants

 Speed of light in vacuum [m/s]                             2.99792458000000E+08
 Magnetic constant or permeability of vacuum [N/A**2]       1.25663706143592E-06
 Electric constant or permittivity of vacuum [F/m]          8.85418781762039E-12
 Planck constant (h) [J*s]                                  6.62606896000000E-34
 Planck constant (h-bar) [J*s]                              1.05457162825177E-34
 Elementary charge [C]                                      1.60217648700000E-19
 Electron mass [kg]                                         9.10938215000000E-31
 Electron g factor [ ]                                     -2.00231930436220E+00
 Proton mass [kg]                                           1.67262163700000E-27
 Fine-structure constant                                    7.29735253760000E-03
 Rydberg constant [1/m]                                     1.09737315685270E+07
 Avogadro constant [1/mol]                                  6.02214179000000E+23
 Boltzmann constant [J/K]                                   1.38065040000000E-23
 Atomic mass unit [kg]                                      1.66053878200000E-27
 Bohr radius [m]                                            5.29177208590000E-11

 *** Conversion factors ***

 [u] -> [a.u.]                                              1.82288848426455E+03
 [Angstrom] -> [Bohr] = [a.u.]                              1.88972613288564E+00
 [a.u.] = [Bohr] -> [Angstrom]                              5.29177208590000E-01
 [a.u.] -> [s]                                              2.41888432650478E-17
 [a.u.] -> [fs]                                             2.41888432650478E-02
 [a.u.] -> [J]                                              4.35974393937059E-18
 [a.u.] -> [N]                                              8.23872205491840E-08
 [a.u.] -> [K]                                              3.15774647902944E+05
 [a.u.] -> [kJ/mol]                                         2.62549961709828E+03
 [a.u.] -> [kcal/mol]                                       6.27509468713739E+02
 [a.u.] -> [Pa]                                             2.94210107994716E+13
 [a.u.] -> [bar]                                            2.94210107994716E+08
 [a.u.] -> [atm]                                            2.90362800883016E+08
 [a.u.] -> [eV]                                             2.72113838565563E+01
 [a.u.] -> [Hz]                                             6.57968392072181E+15
 [a.u.] -> [1/cm] (wave numbers)                            2.19474631370540E+05
 [a.u./Bohr**2] -> [1/cm]                                   5.14048714338585E+03
 

 CELL_TOP| Volume [angstrom^3]:                                         4096.000
 CELL_TOP| Vector a [angstrom    16.000     0.000     0.000    |a| =      16.000
 CELL_TOP| Vector b [angstrom     0.000    16.000     0.000    |b| =      16.000
 CELL_TOP| Vector c [angstrom     0.000     0.000    16.000    |c| =      16.000
 CELL_TOP| Angle (b,c), alpha [degree]:                                   90.000
 CELL_TOP| Angle (a,c), beta  [degree]:                                   90.000
 CELL_TOP| Angle (a,b), gamma [degree]:                                   90.000
 CELL_TOP| Numerically orthorhombic:                                         YES

 GENERATE|  Preliminary Number of Bonds generated:                             0
 GENERATE|  Achieved consistency in connectivity generation.

 CELL| Volume [angstrom^3]:                                             4096.000
 CELL| Vector a [angstrom]:      16.000     0.000     0.000    |a| =      16.000
 CELL| Vector b [angstrom]:       0.000    16.000     0.000    |b| =      16.000
 CELL| Vector c [angstrom]:       0.000     0.000    16.000    |c| =      16.000
 CELL| Angle (b,c), alpha [degree]:                                       90.000
 CELL| Angle (a,c), beta  [degree]:                                       90.000
 CELL| Angle (a,b), gamma [degree]:                                       90.000
 CELL| Numerically orthorhombic:                                             YES

 CELL_REF| Volume [angstrom^3]:                                         4096.000
 CELL_REF| Vector a [angstrom    16.000     0.000     0.000    |a| =      16.000
 CELL_REF| Vector b [angstrom     0.000    16.000     0.000    |b| =      16.000
 CELL_REF| Vector c [angstrom     0.000     0.000    16.000    |c| =      16.000
 CELL_REF| Angle (b,c), alpha [degree]:                                   90.000
 CELL_REF| Angle (a,c), beta  [degree]:                                   90.000
 CELL_REF| Angle (a,b), gamma [degree]:                                   90.000
 CELL_REF| Numerically orthorhombic:                                         YES

 *******************************************************************************
 *******************************************************************************
 **                                                                           **
 **     #####                         ##              ##                      **
 **    ##   ##            ##          ##              ##                      **
 **   ##     ##                       ##            ######                    **
 **   ##     ##  ##   ##  ##   #####  ##  ##   ####   ##    #####    #####    **
 **   ##     ##  ##   ##  ##  ##      ## ##   ##      ##   ##   ##  ##   ##   **
 **   ##  ## ##  ##   ##  ##  ##      ####     ###    ##   ######   ######    **
 **    ##  ###   ##   ##  ##  ##      ## ##      ##   ##   ##       ##        **
 **     #######   #####   ##   #####  ##  ##  ####    ##    #####   ##        **
 **           ##                                                    ##        **
 **                                                                           **
 **                                                ... make the atoms dance   **
 **                                                                           **
 **            Copyright (C) by CP2K developers group (2000 - 2019)           **
 **                                                                           **
 *******************************************************************************

 DFT| Spin restricted Kohn-Sham (RKS) calculation                            RKS
 DFT| Multiplicity                                                             1
 DFT| Number of spin states                                                    1
 DFT| Charge                                                                   0
 DFT| Self-interaction correction (SIC)                                       NO
 DFT| Cutoffs: density                                              1.000000E-10
 DFT|          gradient                                             1.000000E-10
 DFT|          tau                                                  1.000000E-10
 DFT|          cutoff_smoothing_range                               0.000000E+00
 DFT| XC density smoothing                                                  NONE
 DFT| XC derivatives                                                          PW
 FUNCTIONAL| ROUTINE=NEW
 FUNCTIONAL| PBE:
 FUNCTIONAL| J.P.Perdew, K.Burke, M.Ernzerhof, Phys. Rev. Letter, vol. 77, n 18,
 FUNCTIONAL|  pp. 3865-3868, (1996){spin unpolarized}                           

 QS| Method:                                                                GAPW
 QS| Density plane wave grid type                        NON-SPHERICAL FULLSPACE
 QS| Number of grid levels:                                                    4
 QS| Density cutoff [a.u.]:                                                200.0
 QS| Multi grid cutoff [a.u.]: 1) grid level                               200.0
 QS|                           2) grid level                                66.7
 QS|                           3) grid level                                22.2
 QS|                           4) grid level                                 7.4
 QS| Grid level progression factor:                                          3.0
 QS| Relative density cutoff [a.u.]:                                        25.0
 QS| Consistent realspace mapping and integration 
 QS| Interaction thresholds: eps_pgf_orb:                                1.0E-05
 QS|                         eps_filter_matrix:                          0.0E+00
 QS|                         eps_core_charge:                            1.0E-12
 QS|                         eps_rho_gspace:                             1.0E-10
 QS|                         eps_rho_rspace:                             1.0E-10
 QS|                         eps_gvg_rspace:                             1.0E-05
 QS|                         eps_ppl:                                    1.0E-02
 QS|                         eps_ppnl:                                   1.0E-07
 QS| GAPW|                   eps_fit:                                    1.0E-04
 QS| GAPW|                   eps_iso:                                    1.0E-12
 QS| GAPW|                   eps_svd:                                    1.0E-08
 QS| GAPW|                   eps_cpc:                                    1.0E-10
 QS| GAPW|   atom-r-grid: quadrature:                 GC_LOG                        
 QS| GAPW|      atom-s-grid:  max l :                                          6
 QS| GAPW|      max_l_rho0 :                                                   2


 ATOMIC KIND INFORMATION

  1. Atomic kind: Na                                    Number of atoms:       4

     Orbital Basis Set                                                 def2-QZVP

       Number of orbital shell sets:                                          18
       Number of orbital shells:                                              18
       Number of primitive Cartesian functions:                               36
       Number of Cartesian basis functions:                                   52
       Number of spherical basis functions:                                   46
       Norm type:                                                              2

       Normalised Cartesian orbitals:

                        Set   Shell   Orbital            Exponent    Coefficient

                          1       1    1s           379852.200810       0.239571
                                                     56886.006378       0.448370
                                                     12942.701838       0.776316
                                                      3664.301790       1.267092
                                                      1194.741750       1.963166
                                                       430.981929       2.858391
                                                       167.831694       3.786259
                                                        69.306669       4.246459
                                                        29.951171       3.523436
                                                        13.380791       1.618647

                          2       1    1s              121.740113       0.883178
                                                        37.044143       2.885386
                                                        13.995423       3.827570

                          3       1    1s                5.982780       2.726386

                          4       1    1s                2.483046       1.409771

                          5       1    1s                1.045251       0.736759

                          6       1    1s                0.438756       0.384218

                          7       1    1s                0.065596       0.092378

                          8       1    1s                0.030562       0.052095

                          9       1    1s                0.015509       0.031322

                         10       1    1px             690.776270       1.967483
                                                       163.828061       2.760793
                                                        52.876461       3.452362
                                                        19.812270       3.702527
                                                         8.132038       3.232498
                                                         3.496907       2.059200
                                                         1.511724       0.903688
                                                         0.644793       0.241500
                         10       1    1py             690.776270       1.967483
                                                       163.828061       2.760793
                                                        52.876461       3.452362
                                                        19.812270       3.702527
                                                         8.132038       3.232498
                                                         3.496907       2.059200
                                                         1.511724       0.903688
                                                         0.644793       0.241500
                         10       1    1pz             690.776270       1.967483
                                                       163.828061       2.760793
                                                        52.876461       3.452362
                                                        19.812270       3.702527
                                                         8.132038       3.232498
                                                         3.496907       2.059200
                                                         1.511724       0.903688
                                                         0.644793       0.241500

                         11       1    1px               0.261458       0.266497
                         11       1    1py               0.261458       0.266497
                         11       1    1pz               0.261458       0.266497

                         12       1    1px               0.117047       0.097587
                         12       1    1py               0.117047       0.097587
                         12       1    1pz               0.117047       0.097587

                         13       1    1px               0.040495       0.025893
                         13       1    1py               0.040495       0.025893
                         13       1    1pz               0.040495       0.025893

                         14       1    1px               0.015667       0.007901
                         14       1    1py               0.015667       0.007901
                         14       1    1pz               0.015667       0.007901

                         15       1    1dx2              2.900000      10.607327
                         15       1    1dxy              2.900000      18.372429
                         15       1    1dxz              2.900000      18.372429
                         15       1    1dy2              2.900000      10.607327
                         15       1    1dyz              2.900000      18.372429
                         15       1    1dz2              2.900000      10.607327

                         16       1    1dx2              0.230000       0.125728
                         16       1    1dxy              0.230000       0.217768
                         16       1    1dxz              0.230000       0.217768
                         16       1    1dy2              0.230000       0.125728
                         16       1    1dyz              0.230000       0.217768
                         16       1    1dz2              0.230000       0.125728

                         17       1    1dx2              0.075700       0.017982
                         17       1    1dxy              0.075700       0.031145
                         17       1    1dxz              0.075700       0.031145
                         17       1    1dy2              0.075700       0.017982
                         17       1    1dyz              0.075700       0.031145
                         17       1    1dz2              0.075700       0.017982

                         18       1    1fx3              0.135000       0.016263
                         18       1    1fx2y             0.135000       0.036366
                         18       1    1fx2z             0.135000       0.036366
                         18       1    1fxy2             0.135000       0.036366
                         18       1    1fxyz             0.135000       0.062987
                         18       1    1fxz2             0.135000       0.036366
                         18       1    1fy3              0.135000       0.016263
                         18       1    1fy2z             0.135000       0.036366
                         18       1    1fyz2             0.135000       0.036366
                         18       1    1fz3              0.135000       0.016263

     RI Auxiliary Basis Set                                                RI-5Z

       Number of orbital shell sets:                                          48
       Number of orbital shells:                                              48
       Number of primitive Cartesian functions:                               48
       Number of Cartesian basis functions:                                  335
       Number of spherical basis functions:                                  230
       Norm type:                                                              2

       Normalised Cartesian orbitals:

                        Set   Shell   Orbital            Exponent    Coefficient

                          1       1    1s              419.616000      66.076818

                          2       1    1s               76.184400      18.378482

                          3       1    1s               36.109400      10.498453

                          4       1    1s               10.679900       4.210518

                          5       1    1s                5.620630       2.601650

                          6       1    1s                1.925560       1.165005

                          7       1    1s                0.852646       0.632392

                          8       1    1s                0.387552       0.350072

                          9       1    1s                0.221264       0.229929

                         10       1    1s                0.139657       0.162820

                         11       1    1s                0.084509       0.111709

                         12       1    1s                0.049376       0.074653

                         13       1    1px              90.027500     395.283854
                         13       1    1py              90.027500     395.283854
                         13       1    1pz              90.027500     395.283854

                         14       1    1px              22.833000      71.144906
                         14       1    1py              22.833000      71.144906
                         14       1    1pz              22.833000      71.144906

                         15       1    1px               8.495520      20.674144
                         15       1    1py               8.495520      20.674144
                         15       1    1pz               8.495520      20.674144

                         16       1    1px               3.996960       8.055682
                         16       1    1py               3.996960       8.055682
                         16       1    1pz               3.996960       8.055682

                         17       1    1px               1.854640       3.085067
                         17       1    1py               1.854640       3.085067
                         17       1    1pz               1.854640       3.085067

                         18       1    1px               0.833572       1.135322
                         18       1    1py               0.833572       1.135322
                         18       1    1pz               0.833572       1.135322

                         19       1    1px               0.404155       0.459330
                         19       1    1py               0.404155       0.459330
                         19       1    1pz               0.404155       0.459330

                         20       1    1px               0.220763       0.215699
                         20       1    1py               0.220763       0.215699
                         20       1    1pz               0.220763       0.215699

                         21       1    1px               0.140095       0.122171
                         21       1    1py               0.140095       0.122171
                         21       1    1pz               0.140095       0.122171

                         22       1    1px               0.094966       0.075146
                         22       1    1py               0.094966       0.075146
                         22       1    1pz               0.094966       0.075146

                         23       1    1px               0.055505       0.038402
                         23       1    1py               0.055505       0.038402
                         23       1    1pz               0.055505       0.038402

                         24       1    1dx2             24.684200     449.927776
                         24       1    1dxy             24.684200     779.297768
                         24       1    1dxz             24.684200     779.297768
                         24       1    1dy2             24.684200     449.927776
                         24       1    1dyz             24.684200     779.297768
                         24       1    1dz2             24.684200     449.927776

                         25       1    1dx2              7.308650      53.471762
                         25       1    1dxy              7.308650      92.615808
                         25       1    1dxz              7.308650      92.615808
                         25       1    1dy2              7.308650      53.471762
                         25       1    1dyz              7.308650      92.615808
                         25       1    1dz2              7.308650      53.471762

                         26       1    1dx2              2.161400       6.341558
                         26       1    1dxy              2.161400      10.983901
                         26       1    1dxz              2.161400      10.983901
                         26       1    1dy2              2.161400       6.341558
                         26       1    1dyz              2.161400      10.983901
                         26       1    1dz2              2.161400       6.341558

                         27       1    1dx2              1.015980       1.692226
                         27       1    1dxy              1.015980       2.931022
                         27       1    1dxz              1.015980       2.931022
                         27       1    1dy2              1.015980       1.692226
                         27       1    1dyz              1.015980       2.931022
                         27       1    1dz2              1.015980       1.692226

                         28       1    1dx2              0.460342       0.423448
                         28       1    1dxy              0.460342       0.733434
                         28       1    1dxz              0.460342       0.733434
                         28       1    1dy2              0.460342       0.423448
                         28       1    1dyz              0.460342       0.733434
                         28       1    1dz2              0.460342       0.423448

                         29       1    1dx2              0.264182       0.160229
                         29       1    1dxy              0.264182       0.277524
                         29       1    1dxz              0.264182       0.277524
                         29       1    1dy2              0.264182       0.160229
                         29       1    1dyz              0.264182       0.277524
                         29       1    1dz2              0.264182       0.160229

                         30       1    1dx2              0.163262       0.069017
                         30       1    1dxy              0.163262       0.119542
                         30       1    1dxz              0.163262       0.119542
                         30       1    1dy2              0.163262       0.069017
                         30       1    1dyz              0.163262       0.119542
                         30       1    1dz2              0.163262       0.069017

                         31       1    1dx2              0.112281       0.035846
                         31       1    1dxy              0.112281       0.062088
                         31       1    1dxz              0.112281       0.062088
                         31       1    1dy2              0.112281       0.035846
                         31       1    1dyz              0.112281       0.062088
                         31       1    1dz2              0.112281       0.035846

                         32       1    1dx2              0.071736       0.016366
                         32       1    1dxy              0.071736       0.028347
                         32       1    1dxz              0.071736       0.028347
                         32       1    1dy2              0.071736       0.016366
                         32       1    1dyz              0.071736       0.028347
                         32       1    1dz2              0.071736       0.016366

                         33       1    1fx3              5.498600      68.158769
                         33       1    1fx2y             5.498600     152.407640
                         33       1    1fx2z             5.498600     152.407640
                         33       1    1fxy2             5.498600     152.407640
                         33       1    1fxyz             5.498600     263.977777
                         33       1    1fxz2             5.498600     152.407640
                         33       1    1fy3              5.498600      68.158769
                         33       1    1fy2z             5.498600     152.407640
                         33       1    1fyz2             5.498600     152.407640
                         33       1    1fz3              5.498600      68.158769

                         34       1    1fx3              1.897290       6.219498
                         34       1    1fx2y             1.897290      13.907220
                         34       1    1fx2z             1.897290      13.907220
                         34       1    1fxy2             1.897290      13.907220
                         34       1    1fxyz             1.897290      24.088011
                         34       1    1fxz2             1.897290      13.907220
                         34       1    1fy3              1.897290       6.219498
                         34       1    1fy2z             1.897290      13.907220
                         34       1    1fyz2             1.897290      13.907220
                         34       1    1fz3              1.897290       6.219498

                         35       1    1fx3              0.906002       1.178949
                         35       1    1fx2y             0.906002       2.636210
                         35       1    1fx2z             0.906002       2.636210
                         35       1    1fxy2             0.906002       2.636210
                         35       1    1fxyz             0.906002       4.566050
                         35       1    1fxz2             0.906002       2.636210
                         35       1    1fy3              0.906002       1.178949
                         35       1    1fy2z             0.906002       2.636210
                         35       1    1fyz2             0.906002       2.636210
                         35       1    1fz3              0.906002       1.178949

                         36       1    1fx3              0.448908       0.242833
                         36       1    1fx2y             0.448908       0.542992
                         36       1    1fx2z             0.448908       0.542992
                         36       1    1fxy2             0.448908       0.542992
                         36       1    1fxyz             0.448908       0.940490
                         36       1    1fxz2             0.448908       0.542992
                         36       1    1fy3              0.448908       0.242833
                         36       1    1fy2z             0.448908       0.542992
                         36       1    1fyz2             0.448908       0.542992
                         36       1    1fz3              0.448908       0.242833

                         37       1    1fx3              0.279331       0.083507
                         37       1    1fx2y             0.279331       0.186727
                         37       1    1fx2z             0.279331       0.186727
                         37       1    1fxy2             0.279331       0.186727
                         37       1    1fxyz             0.279331       0.323421
                         37       1    1fxz2             0.279331       0.186727
                         37       1    1fy3              0.279331       0.083507
                         37       1    1fy2z             0.279331       0.186727
                         37       1    1fyz2             0.279331       0.186727
                         37       1    1fz3              0.279331       0.083507

                         38       1    1fx3              0.169807       0.027249
                         38       1    1fx2y             0.169807       0.060931
                         38       1    1fx2z             0.169807       0.060931
                         38       1    1fxy2             0.169807       0.060931
                         38       1    1fxyz             0.169807       0.105536
                         38       1    1fxz2             0.169807       0.060931
                         38       1    1fy3              0.169807       0.027249
                         38       1    1fy2z             0.169807       0.060931
                         38       1    1fyz2             0.169807       0.060931
                         38       1    1fz3              0.169807       0.027249

                         39       1    1fx3              0.100110       0.008299
                         39       1    1fx2y             0.100110       0.018557
                         39       1    1fx2z             0.100110       0.018557
                         39       1    1fxy2             0.100110       0.018557
                         39       1    1fxyz             0.100110       0.032142
                         39       1    1fxz2             0.100110       0.018557
                         39       1    1fy3              0.100110       0.008299
                         39       1    1fy2z             0.100110       0.018557
                         39       1    1fyz2             0.100110       0.018557
                         39       1    1fz3              0.100110       0.008299

                         40       1    1gx4              1.972760       7.209242
                         40       1    1gx3y             1.972760      19.073862
                         40       1    1gx3z             1.972760      19.073862
                         40       1    1gx2y2            1.972760      24.624250
                         40       1    1gx2yz            1.972760      42.650453
                         40       1    1gx2z2            1.972760      24.624250
                         40       1    1gxy3             1.972760      19.073862
                         40       1    1gxy2z            1.972760      42.650453
                         40       1    1gxyz2            1.972760      42.650453
                         40       1    1gxz3             1.972760      19.073862
                         40       1    1gy4              1.972760       7.209242
                         40       1    1gy3z             1.972760      19.073862
                         40       1    1gy2z2            1.972760      24.624250
                         40       1    1gyz3             1.972760      19.073862
                         40       1    1gz4              1.972760       7.209242

                         41       1    1gx4              0.831274       0.669471
                         41       1    1gx3y             0.831274       1.771255
                         41       1    1gx3z             0.831274       1.771255
                         41       1    1gx2y2            0.831274       2.286680
                         41       1    1gx2yz            0.831274       3.960646
                         41       1    1gx2z2            0.831274       2.286680
                         41       1    1gxy3             0.831274       1.771255
                         41       1    1gxy2z            0.831274       3.960646
                         41       1    1gxyz2            0.831274       3.960646
                         41       1    1gxz3             0.831274       1.771255
                         41       1    1gy4              0.831274       0.669471
                         41       1    1gy3z             0.831274       1.771255
                         41       1    1gy2z2            0.831274       2.286680
                         41       1    1gyz3             0.831274       1.771255
                         41       1    1gz4              0.831274       0.669471

                         42       1    1gx4              0.444306       0.119553
                         42       1    1gx3y             0.444306       0.316308
                         42       1    1gx3z             0.444306       0.316308
                         42       1    1gx2y2            0.444306       0.408352
                         42       1    1gx2yz            0.444306       0.707287
                         42       1    1gx2z2            0.444306       0.408352
                         42       1    1gxy3             0.444306       0.316308
                         42       1    1gxy2z            0.444306       0.707287
                         42       1    1gxyz2            0.444306       0.707287
                         42       1    1gxz3             0.444306       0.316308
                         42       1    1gy4              0.444306       0.119553
                         42       1    1gy3z             0.444306       0.316308
                         42       1    1gy2z2            0.444306       0.408352
                         42       1    1gyz3             0.444306       0.316308
                         42       1    1gz4              0.444306       0.119553

                         43       1    1gx4              0.243401       0.022847
                         43       1    1gx3y             0.243401       0.060446
                         43       1    1gx3z             0.243401       0.060446
                         43       1    1gx2y2            0.243401       0.078036
                         43       1    1gx2yz            0.243401       0.135162
                         43       1    1gx2z2            0.243401       0.078036
                         43       1    1gxy3             0.243401       0.060446
                         43       1    1gxy2z            0.243401       0.135162
                         43       1    1gxyz2            0.243401       0.135162
                         43       1    1gxz3             0.243401       0.060446
                         43       1    1gy4              0.243401       0.022847
                         43       1    1gy3z             0.243401       0.060446
                         43       1    1gy2z2            0.243401       0.078036
                         43       1    1gyz3             0.243401       0.060446
                         43       1    1gz4              0.243401       0.022847

                         44       1    1gx4              0.121353       0.003370
                         44       1    1gx3y             0.121353       0.008915
                         44       1    1gx3z             0.121353       0.008915
                         44       1    1gx2y2            0.121353       0.011509
                         44       1    1gx2yz            0.121353       0.019935
                         44       1    1gx2z2            0.121353       0.011509
                         44       1    1gxy3             0.121353       0.008915
                         44       1    1gxy2z            0.121353       0.019935
                         44       1    1gxyz2            0.121353       0.019935
                         44       1    1gxz3             0.121353       0.008915
                         44       1    1gy4              0.121353       0.003370
                         44       1    1gy3z             0.121353       0.008915
                         44       1    1gy2z2            0.121353       0.011509
                         44       1    1gyz3             0.121353       0.008915
                         44       1    1gz4              0.121353       0.003370

                         45       1    1hx5              1.196610       1.329506
                         45       1    1hx4y             1.196610       3.988517
                         45       1    1hx4z             1.196610       3.988517
                         45       1    1hx3y2            1.196610       6.092561
                         45       1    1hx3yz            1.196610      10.552624
                         45       1    1hx3z2            1.196610       6.092561
                         45       1    1hx2y3            1.196610       6.092561
                         45       1    1hx2y2z           1.196610      13.623380
                         45       1    1hx2yz2           1.196610      13.623380
                         45       1    1hx2z3            1.196610       6.092561
                         45       1    1hxy4             1.196610       3.988517
                         45       1    1hxy3z            1.196610      10.552624
                         45       1    1hxy2z2           1.196610      13.623380
                         45       1    1hxyz3            1.196610      10.552624
                         45       1    1hxz4             1.196610       3.988517
                         45       1    1hy5              1.196610       1.329506
                         45       1    1hy4z             1.196610       3.988517
                         45       1    1hy3z2            1.196610       6.092561
                         45       1    1hy2z3            1.196610       6.092561
                         45       1    1hyz4             1.196610       3.988517
                         45       1    1hz5              1.196610       1.329506

                         46       1    1hx5              0.515542       0.086139
                         46       1    1hx4y             0.515542       0.258418
                         46       1    1hx4z             0.515542       0.258418
                         46       1    1hx3y2            0.515542       0.394741
                         46       1    1hx3yz            0.515542       0.683711
                         46       1    1hx3z2            0.515542       0.394741
                         46       1    1hx2y3            0.515542       0.394741
                         46       1    1hx2y2z           0.515542       0.882667
                         46       1    1hx2yz2           0.515542       0.882667
                         46       1    1hx2z3            0.515542       0.394741
                         46       1    1hxy4             0.515542       0.258418
                         46       1    1hxy3z            0.515542       0.683711
                         46       1    1hxy2z2           0.515542       0.882667
                         46       1    1hxyz3            0.515542       0.683711
                         46       1    1hxz4             0.515542       0.258418
                         46       1    1hy5              0.515542       0.086139
                         46       1    1hy4z             0.515542       0.258418
                         46       1    1hy3z2            0.515542       0.394741
                         46       1    1hy2z3            0.515542       0.394741
                         46       1    1hyz4             0.515542       0.258418
                         46       1    1hz5              0.515542       0.086139

                         47       1    1hx5              0.195597       0.003692
                         47       1    1hx4y             0.195597       0.011076
                         47       1    1hx4z             0.195597       0.011076
                         47       1    1hx3y2            0.195597       0.016919
                         47       1    1hx3yz            0.195597       0.029305
                         47       1    1hx3z2            0.195597       0.016919
                         47       1    1hx2y3            0.195597       0.016919
                         47       1    1hx2y2z           0.195597       0.037833
                         47       1    1hx2yz2           0.195597       0.037833
                         47       1    1hx2z3            0.195597       0.016919
                         47       1    1hxy4             0.195597       0.011076
                         47       1    1hxy3z            0.195597       0.029305
                         47       1    1hxy2z2           0.195597       0.037833
                         47       1    1hxyz3            0.195597       0.029305
                         47       1    1hxz4             0.195597       0.011076
                         47       1    1hy5              0.195597       0.003692
                         47       1    1hy4z             0.195597       0.011076
                         47       1    1hy3z2            0.195597       0.016919
                         47       1    1hy2z3            0.195597       0.016919
                         47       1    1hyz4             0.195597       0.011076
                         47       1    1hz5              0.195597       0.003692

                         48       1    1ix6              0.533694       0.042464
                         48       1    1ix5y             0.533694       0.140838
                         48       1    1ix5z             0.533694       0.140838
                         48       1    1ix4y2            0.533694       0.243939
                         48       1    1ix4yz            0.533694       0.422515
                         48       1    1ix4z2            0.533694       0.243939
                         48       1    1ix3y3            0.533694       0.288632
                         48       1    1ix3y2z           0.533694       0.645402
                         48       1    1ix3yz2           0.533694       0.645402
                         48       1    1ix3z3            0.533694       0.288632
                         48       1    1ix2y4            0.533694       0.243939
                         48       1    1ix2y3z           0.533694       0.645402
                         48       1    1ix2y2z2          0.533694       0.833210
                         48       1    1ix2yz3           0.533694       0.645402
                         48       1    1ix2z4            0.533694       0.243939
                         48       1    1ixy5             0.533694       0.140838
                         48       1    1ixy4z            0.533694       0.422515
                         48       1    1ixy3z2           0.533694       0.645402
                         48       1    1ixy2z3           0.533694       0.645402
                         48       1    1ixyz4            0.533694       0.422515
                         48       1    1ixz5             0.533694       0.140838
                         48       1    1iy6              0.533694       0.042464
                         48       1    1iy5z             0.533694       0.140838
                         48       1    1iy4z2            0.533694       0.243939
                         48       1    1iy3z3            0.533694       0.288632
                         48       1    1iy2z4            0.533694       0.243939
                         48       1    1iyz5             0.533694       0.140838
                         48       1    1iz6              0.533694       0.042464

     The atoms of this atomic kind are PAW atoms (GAPW):
       Hard Gaussian function radius:                                      1.512
       Rho0 radius:                                                        1.512
       Maximum GTO radius used for PAW projector construction:            24.566

     GAPW Soft Basis Set                                          def2-QZVP_soft

       Number of orbital shell sets:                                          18
       Number of orbital shells:                                              18
       Number of primitive Cartesian functions:                               17
       Number of Cartesian basis functions:                                   52
       Number of spherical basis functions:                                   46
       Norm type:                                                              2

       Normalised Cartesian orbitals:

                        Set   Shell   Orbital            Exponent    Coefficient

                          1       1    1s         

                          2       1    1s         

                          3       1    1s         

                          4       1    1s                2.483046       1.409771

                          5       1    1s                1.045251       0.736759

                          6       1    1s                0.438756       0.384218

                          7       1    1s                0.065596       0.092378

                          8       1    1s                0.030562       0.052095

                          9       1    1s                0.015509       0.031322

                         10       1    1px               3.496907       2.059200
                                                         1.511724       0.903688
                                                         0.644793       0.241500
                         10       1    1py               3.496907       2.059200
                                                         1.511724       0.903688
                                                         0.644793       0.241500
                         10       1    1pz               3.496907       2.059200
                                                         1.511724       0.903688
                                                         0.644793       0.241500

                         11       1    1px               0.261458       0.266497
                         11       1    1py               0.261458       0.266497
                         11       1    1pz               0.261458       0.266497

                         12       1    1px               0.117047       0.097587
                         12       1    1py               0.117047       0.097587
                         12       1    1pz               0.117047       0.097587

                         13       1    1px               0.040495       0.025893
                         13       1    1py               0.040495       0.025893
                         13       1    1pz               0.040495       0.025893

                         14       1    1px               0.015667       0.007901
                         14       1    1py               0.015667       0.007901
                         14       1    1pz               0.015667       0.007901

                         15       1    1dx2              2.900000      10.607327
                         15       1    1dxy              2.900000      18.372429
                         15       1    1dxz              2.900000      18.372429
                         15       1    1dy2              2.900000      10.607327
                         15       1    1dyz              2.900000      18.372429
                         15       1    1dz2              2.900000      10.607327

                         16       1    1dx2              0.230000       0.125728
                         16       1    1dxy              0.230000       0.217768
                         16       1    1dxz              0.230000       0.217768
                         16       1    1dy2              0.230000       0.125728
                         16       1    1dyz              0.230000       0.217768
                         16       1    1dz2              0.230000       0.125728

                         17       1    1dx2              0.075700       0.017982
                         17       1    1dxy              0.075700       0.031145
                         17       1    1dxz              0.075700       0.031145
                         17       1    1dy2              0.075700       0.017982
                         17       1    1dyz              0.075700       0.031145
                         17       1    1dz2              0.075700       0.017982

                         18       1    1fx3              0.135000       0.016263
                         18       1    1fx2y             0.135000       0.036366
                         18       1    1fx2z             0.135000       0.036366
                         18       1    1fxy2             0.135000       0.036366
                         18       1    1fxyz             0.135000       0.062987
                         18       1    1fxz2             0.135000       0.036366
                         18       1    1fy3              0.135000       0.016263
                         18       1    1fy2z             0.135000       0.036366
                         18       1    1fyz2             0.135000       0.036366
                         18       1    1fz3              0.135000       0.016263

     AE Potential information for                                            ALL

       Description:                                       All-electron potential
                                          Krack, Parrinello, PCCP 2, 2105 (2000)

       Gaussian exponent of the core charge distribution:               8.240971
       Electronic configuration (s p d ...):                           5   6   0


 MOLECULE KIND INFORMATION


 All atoms are their own molecule, skipping detailed information


 TOTAL NUMBERS AND MAXIMUM NUMBERS

  Total number of            - Atomic kinds:                                   1
                             - Atoms:                                          4
                             - Shell sets:                                    72
                             - Shells:                                        72
                             - Primitive Cartesian functions:                144
                             - Cartesian basis functions:                    208
                             - Spherical basis functions:                    184

  Maximum angular momentum of the orbital basis functions:                     3


 MODULE QUICKSTEP:  ATOMIC COORDINATES IN angstrom

  Atom  Kind  Element       X           Y           Z          Z(eff)       Mass

       1     1 Na  11    8.000244    7.900178    9.547164     11.00      22.9898
       2     1 Na  11    7.999756   11.177642    8.048689     11.00      22.9898
       3     1 Na  11    8.000244    8.099756    6.452836     11.00      22.9898
       4     1 Na  11    7.999756    4.822358    7.951516     11.00      22.9898




 SCF PARAMETERS         Density guess:                                   RESTART
                        --------------------------------------------------------
                        max_scf:                                             200
                        max_scf_history:                                       0
                        max_diis:                                              4
                        --------------------------------------------------------
                        eps_scf:                                        1.00E-06
                        eps_scf_history:                                0.00E+00
                        eps_diis:                                       1.00E-01
                        eps_eigval:                                     1.00E-05
                        --------------------------------------------------------
                        level_shift [a.u.]:                                 0.00
                        --------------------------------------------------------
                        Mixing method:                           DIRECT_P_MIXING
                        --------------------------------------------------------
                        No outer SCF

 PW_GRID| Information for grid number                                          1
 PW_GRID| Grid distributed over                                    24 processors
 PW_GRID| Real space group dimensions                                    24    1
 PW_GRID| the grid is blocked:                                                NO
 PW_GRID| Cutoff [a.u.]                                                    400.0
 PW_GRID| spherical cutoff:                                                   NO
 PW_GRID|   Bounds   1           -144     143                Points:         288
 PW_GRID|   Bounds   2           -144     143                Points:         288
 PW_GRID|   Bounds   3           -144     143                Points:         288
 PW_GRID| Volume element (a.u.^3)  0.1157E-02     Volume (a.u.^3)     27641.1785
 PW_GRID| Grid span                                                    FULLSPACE
 PW_GRID|   Distribution                         Average         Max         Min
 PW_GRID|   G-Vectors                           995328.0      995328      995328
 PW_GRID|   G-Rays                                3456.0        3456        3456
 PW_GRID|   Real Space Points                   995328.0      995328      995328

 PW_GRID| Information for grid number                                          2
 PW_GRID| Grid distributed over                                    24 processors
 PW_GRID| Real space group dimensions                                    24    1
 PW_GRID| the grid is blocked:                                                NO
 PW_GRID| Cutoff [a.u.]                                                    200.0
 PW_GRID| spherical cutoff:                                                   NO
 PW_GRID|   Bounds   1           -100      99                Points:         200
 PW_GRID|   Bounds   2           -100      99                Points:         200
 PW_GRID|   Bounds   3           -100      99                Points:         200
 PW_GRID| Volume element (a.u.^3)  0.3455E-02     Volume (a.u.^3)     27641.1785
 PW_GRID| Grid span                                                    FULLSPACE
 PW_GRID|   Distribution                         Average         Max         Min
 PW_GRID|   G-Vectors                           333333.3      333600      333200
 PW_GRID|   G-Rays                                1666.7        1668        1666
 PW_GRID|   Real Space Points                   333333.3      360000      320000

 PW_GRID| Information for grid number                                          3
 PW_GRID| Grid distributed over                                    24 processors
 PW_GRID| Real space group dimensions                                    24    1
 PW_GRID| the grid is blocked:                                                NO
 PW_GRID| Cutoff [a.u.]                                                     66.7
 PW_GRID| spherical cutoff:                                                   NO
 PW_GRID|   Bounds   1            -60      59                Points:         120
 PW_GRID|   Bounds   2            -60      59                Points:         120
 PW_GRID|   Bounds   3            -60      59                Points:         120
 PW_GRID| Volume element (a.u.^3)  0.1600E-01     Volume (a.u.^3)     27641.1785
 PW_GRID| Grid span                                                    FULLSPACE
 PW_GRID|   Distribution                         Average         Max         Min
 PW_GRID|   G-Vectors                            72000.0       72360       71760
 PW_GRID|   G-Rays                                 600.0         603         598
 PW_GRID|   Real Space Points                    72000.0       72000       72000

 PW_GRID| Information for grid number                                          4
 PW_GRID| Grid distributed over                                    24 processors
 PW_GRID| Real space group dimensions                                    24    1
 PW_GRID| the grid is blocked:                                                NO
 PW_GRID| Cutoff [a.u.]                                                     22.2
 PW_GRID| spherical cutoff:                                                   NO
 PW_GRID|   Bounds   1            -36      35                Points:          72
 PW_GRID|   Bounds   2            -36      35                Points:          72
 PW_GRID|   Bounds   3            -36      35                Points:          72
 PW_GRID| Volume element (a.u.^3)  0.7406E-01     Volume (a.u.^3)     27641.1785
 PW_GRID| Grid span                                                    FULLSPACE
 PW_GRID|   Distribution                         Average         Max         Min
 PW_GRID|   G-Vectors                            15552.0       15768       15408
 PW_GRID|   G-Rays                                 216.0         219         214
 PW_GRID|   Real Space Points                    15552.0       15552       15552

 PW_GRID| Information for grid number                                          5
 PW_GRID| Grid distributed over                                    24 processors
 PW_GRID| Real space group dimensions                                    24    1
 PW_GRID| the grid is blocked:                                                NO
 PW_GRID| Cutoff [a.u.]                                                      7.4
 PW_GRID| spherical cutoff:                                                   NO
 PW_GRID|   Bounds   1            -20      19                Points:          40
 PW_GRID|   Bounds   2            -20      19                Points:          40
 PW_GRID|   Bounds   3            -20      19                Points:          40
 PW_GRID| Volume element (a.u.^3)  0.4319         Volume (a.u.^3)     27641.1785
 PW_GRID| Grid span                                                    FULLSPACE
 PW_GRID|   Distribution                         Average         Max         Min
 PW_GRID|   G-Vectors                             2666.7        2720        2640
 PW_GRID|   G-Rays                                  66.7          68          66
 PW_GRID|   Real Space Points                     2666.7        3200        1600

 POISSON| Solver                                          Martyna-Tuckerman (MT)
 POISSON| MT| Alpha                                                        7.000
 POISSON| MT| Relative cutoff                                                2.0
 POISSON| Periodicity                                                       NONE

 RS_GRID| Information for grid number                                          2
 RS_GRID|   Bounds   1           -100      99                Points:         200
 RS_GRID|   Bounds   2           -100      99                Points:         200
 RS_GRID|   Bounds   3           -100      99                Points:         200
 RS_GRID| Real space distribution over                                  4 groups
 RS_GRID| Real space distribution along direction                              2
 RS_GRID| Border size                                                         23
 RS_GRID| Real space distribution over                                  6 groups
 RS_GRID| Real space distribution along direction                              3
 RS_GRID| Border size                                                         23
 RS_GRID|   Distribution                         Average         Max         Min
 RS_GRID|   Planes                                  96.0          96          96
 RS_GRID|   Distribution                         Average         Max         Min
 RS_GRID|   Planes                                  79.3          80          79

 RS_GRID| Information for grid number                                          3
 RS_GRID|   Bounds   1            -60      59                Points:         120
 RS_GRID|   Bounds   2            -60      59                Points:         120
 RS_GRID|   Bounds   3            -60      59                Points:         120
 RS_GRID| Real space distribution over                                  4 groups
 RS_GRID| Real space distribution along direction                              2
 RS_GRID| Border size                                                         24
 RS_GRID| Real space distribution over                                  6 groups
 RS_GRID| Real space distribution along direction                              3
 RS_GRID| Border size                                                         24
 RS_GRID|   Distribution                         Average         Max         Min
 RS_GRID|   Planes                                  78.0          78          78
 RS_GRID|   Distribution                         Average         Max         Min
 RS_GRID|   Planes                                  68.0          68          68

 RS_GRID| Information for grid number                                          4
 RS_GRID|   Bounds   1            -36      35                Points:          72
 RS_GRID|   Bounds   2            -36      35                Points:          72
 RS_GRID|   Bounds   3            -36      35                Points:          72
 RS_GRID| Real space fully replicated
 RS_GRID| Group size                                                           1

 RS_GRID| Information for grid number                                          5
 RS_GRID|   Bounds   1            -20      19                Points:          40
 RS_GRID|   Bounds   2            -20      19                Points:          40
 RS_GRID|   Bounds   3            -20      19                Points:          40
 RS_GRID| Real space fully replicated
 RS_GRID| Group size                                                           1
 
 RI-RPA| using GPW style
 

  HFX_INFO| Replica ID:                                                        1
  HFX_INFO| EPS_SCHWARZ:                                                 2.0E-17
  HFX_INFO| EPS_SCHWARZ_FORCES                                           1.0E-06
  HFX_INFO| EPS_STORAGE_SCALING:                                         1.0E+00
  HFX_INFO| NBINS:                                                            64
  HFX_INFO| BLOCK_SIZE:                                                        1
  HFX_INFO| FRACTION:                                               1.0000000000
  HFX_INFO| Interaction Potential:                                       COULOMB
  HFX_INFO| Number of periodic shells considered:                           NONE
  HFX_INFO| Number of periodic cells considered:                            NONE


 Number of electrons:                                                         44
 Number of occupied orbitals:                                                 22
 Number of molecular orbitals:                                                22

 Number of orbital functions:                                                184
 Number of independent orbital functions:                                    184

 Extrapolation method: initial_guess

 *** WARNING in qs_initial_guess.F:267 :: User requested to restart the   ***
 *** wavefunction from the file named: ALL_ELEC-RESTART.wfn. This file    ***
 *** does not exist. Please check the existence of the file or change     ***
 *** properly the value of the keyword WFN_RESTART_FILE_NAME. Calculation ***
 *** continues using ATOMIC GUESS.                                        ***


 Atomic guess: The first density matrix is obtained in terms of atomic orbitals
               and electronic configurations assigned to each atomic kind

 Guess for atomic kind: Na

 Electronic structure
    Total number of core electrons                                          0.00
    Total number of valence electrons                                      11.00
    Total number of electrons                                              11.00
    Multiplicity                                                   not specified
    S      2.00  2.00  1.00
    P      6.00


 *******************************************************************************
                  Iteration          Convergence                     Energy [au]
 *******************************************************************************
                          1        0.878980                    -161.271066145822
                          2        0.520731                    -161.338581058878
                          3        0.710427E-02                -161.430561942739
                          4        0.844271E-03                -161.430573160747
                          5        0.149865E-04                -161.430573343512
                          6        0.191669E-05                -161.430573343606
                          7        0.683475E-06                -161.430573343607

 Energy components [Hartree]           Total Energy ::         -161.430573343607
                                        Band Energy ::          -86.181018614160
                                     Kinetic Energy ::          160.343935411885
                                   Potential Energy ::         -321.774508755492
                                      Virial (-V/T) ::            2.006776919432
                                        Core Energy ::         -227.498566674917
                                          XC Energy ::          -13.502841263460
                                     Coulomb Energy ::           79.570834594770

 Orbital energies  State     L     Occupation   Energy[a.u.]          Energy[eV]

                       1     0          2.000     -37.773347        -1027.865056
                       2     0          2.000      -2.067808          -56.267923
                       3     0          1.000      -0.103407           -2.813838

                       1     1          6.000      -1.065883          -29.004164


 Total Electron Density at R=0:                                       817.877130
 Re-scaling the density matrix to get the right number of electrons
                  # Electrons              Trace(P)               Scaling factor
                           44                44.000                        1.000


 SCF WAVEFUNCTION OPTIMIZATION

  Step     Update method      Time    Convergence         Total energy    Change
  ------------------------------------------------------------------------------
     1 P_Mix/Diag. 0.40E+00    3.1     0.18497086      -648.7555870474 -6.49E+02
     2 P_Mix/Diag. 0.40E+00    3.1     0.11100530      -648.7509743865  4.61E-03
     3 P_Mix/Diag. 0.40E+00    3.2     0.06167844      -648.7472469271  3.73E-03
     4 DIIS/Diag.  0.30E-02    3.2     0.05511436      -648.7449242193  2.32E-03
     5 DIIS/Diag.  0.22E-02    3.2     0.01233029      -648.7415222846  3.40E-03
     6 DIIS/Diag.  0.55E-02    3.2     0.01811027      -648.7414809154  4.14E-05
     7 DIIS/Diag.  0.91E-03    3.2     0.00424231      -648.7415304431 -4.95E-05
     8 DIIS/Diag.  0.93E-04    3.2     0.00045922      -648.7415320166 -1.57E-06
     9 DIIS/Diag.  0.27E-04    3.2     0.00002839      -648.7415320408 -2.42E-08
    10 DIIS/Diag.  0.46E-05    3.2     0.00000544      -648.7415320413 -4.74E-10
    11 DIIS/Diag.  0.37E-05    3.2     0.00000353      -648.7415320413 -3.09E-11
    12 DIIS/Diag.  0.49E-06    3.2     0.00000173      -648.7415320414 -2.90E-11
    13 DIIS/Diag.  0.40E-06    3.2     0.00000082      -648.7415320414  2.27E-13

  *** SCF run converged in    13 steps ***


  Electronic density on regular grids:        -31.8083894386       12.1916105614
  Core density on regular grids:               44.0000000000        0.0000000000
  Hard and soft densities (Lebedev):          -45.3232807894      -33.1316702412
  Total Rho_soft + Rho1_hard - Rho1_soft      -43.9999999868
  Total charge density (r-space):               0.0000000132
  Total Rho_soft + Rho0_soft (g-space):        -0.0000003198

  Overlap energy of the core charge distribution:               0.00000000000000
  Self energy of the core charge distribution:               -554.29968609072114
  Core Hamiltonian energy:                                   -108.05810017426759
  Hartree energy:                                              61.55636293439669
  Exchange-correlation energy:                                -22.46116664830623

  GAPW| Exc from hard and soft atomic rho1:                   -34.70992093278190
  GAPW| local Eh = 1 center integrals:                          9.23097887030652

  Total energy:                                              -648.74153204137349

 !-----------------------------------------------------------------------------!
                     Mulliken Population Analysis

 #  Atom  Element  Kind  Atomic population                           Net charge
       1     Na       1         10.948936                              0.051064
       2     Na       1         11.051067                             -0.051067
       3     Na       1         10.948936                              0.051064
       4     Na       1         11.051061                             -0.051061
 # Total charge                             44.000000                 -0.000000

 !-----------------------------------------------------------------------------!

 !-----------------------------------------------------------------------------!
                           Hirshfeld Charges

  #Atom  Element  Kind  Ref Charge     Population                    Net charge
      1       Na     1      11.000         10.891                         0.109
      2       Na     1      11.000         11.106                        -0.106
      3       Na     1      11.000         10.891                         0.109
      4       Na     1      11.000         11.106                        -0.106

  Total Charge                                                            0.006
 !-----------------------------------------------------------------------------!


 RI-RPA section
 --------------

  Used number of processes per group:                                          1
  Maximum allowed memory usage per MPI processes:                     200.00 MiB

  HFX_MEM_INFO| Est. max. program size before HFX [MiB]:                     419
  HFX_MEM_INFO| Number of cart. primitive ERI's calculated:           1944385863
  HFX_MEM_INFO| Number of sph. ERI's calculated:                       232764705
  HFX_MEM_INFO| Number of sph. ERI's stored in-core:                   232764705
  HFX_MEM_INFO| Number of sph. ERI's stored on disk:                           0
  HFX_MEM_INFO| Number of sph. ERI's calculated on the fly:                    0
  HFX_MEM_INFO| Total memory consumption ERI's RAM [MiB]:                   1266
  HFX_MEM_INFO| Whereof max-vals [MiB]:                                        4
  HFX_MEM_INFO| Total compression factor ERI's RAM:                         1.40
  HFX_MEM_INFO| Total memory consumption ERI's disk [MiB]:                     0
  HFX_MEM_INFO| Total compression factor ERI's disk:                        0.00
  HFX_MEM_INFO| Size of density/Fock matrix [MiB]:                             0
  HFX_MEM_INFO| Size of buffers [MiB]:                                         0
  HFX_MEM_INFO| Est. max. program size after HFX  [MiB]:                     458

  GPW_INFO| Density cutoff [a.u.]:                                         150.0
  GPW_INFO| Relative density cutoff [a.u.]:                                 25.0
  RI_INFO| Cholesky decomposition group size:                                 24
  RI_INFO| Number of groups for auxiliary basis functions                     24
  RI_INFO| Occupied  basis set size:                                          22
  RI_INFO| Virtual   basis set size:                                         162
  RI_INFO| Auxiliary basis set size:                                         920
  RI_INFO| Total memory for (ia|K) integrals:                          25.02 MiB
  RI_INFO| Group size for frequency integration:                              24
  INTEG_INFO| MINIMAX quadrature
  INTEG_INFO| Number of integration points:                                   12
  INTEG_INFO| Number of integration points per RPA group:                     12
  MATRIX_INFO| Number row processes:                                           8
  MATRIX_INFO| Number column processes:                                        3
  MATRIX_INFO| Row block size:                                               222
  MATRIX_INFO| Column block size:                                            153
 Emin =   2.0866336532629717E-002 Emax =   163.84588827540910      Range =   7852.1636042433811     
  INTEG_INFO| Range for the minimax approximation:                     7852.1636
  INTEG_INFO| Minimax parameters:                    Weights           Abscissas
                                                2.3821132365        0.2889135524
                                                3.3192699835        0.9788610582
                                                5.7234939430        2.0686067672
                                               10.9909862065        4.0744019756
                                               22.4287367565        8.0665431777
                                               48.0659954181       16.4413742766
                                              108.4825003010       34.9114132391
                                              260.3924875401       78.0407651092
                                              675.4007873073      186.1107989696
                                             1941.5934198887      482.9359494514
                                             6484.4998260526     1410.2507386106
                                            30084.6672517834     5072.1802263977
  INTEG_INFO| Range for the minimax approximation:                     7852.1636
  INTEG_INFO| Gap:                                                        0.0209
  INTEG_INFO| Minimax parameters of the time grid:   Weights           Abscissas
                                                0.0001927184        0.0000716535
                                                0.0006724179        0.0004676896
[...]
  INTEG_INFO| Maximum deviation of the imag. time fit:                  5.38E-02
  Number of fit points for analytic continuation:                              6

 *** WARNING in rpa_gw.F:513 :: Pade approximation: more parameters than ***
 *** data points. Reset # of parameters.                                 ***

  Number of pade parameters:                                                   6
  MEMORY_INFO| Memory cut:                                                     1
  MEMORY_INFO| Im. time group size for RI functions:                           1
  MEMORY_INFO| Im. time group size for local P matrix:                         1
  SPARSITY_INFO| Eps pgf orb for imaginary time:                        1.00E-30
  SPARSITY_INFO| Eps filter for imaginary time:                         1.00E-30
  SPARSITY_INFO| Second eps filter for imaginary time:                  1.00E-30
  RPA_IM_TIME_INFO| Number of periodic images T for Chi_PQ^T(it):              1
  RPA_IM_TIME_INFO| Number of periodic images T for Chi_PQ^T(it):              1
  RPA_IM_TIME_INFO| Number of periodic images T for Chi_PQ^T(it):              1
  RPA_IM_TIME_INFO| Number of periodic images T for Chi_PQ^T(it):              1
  RPA_IM_TIME_INFO| Number of periodic images T for Chi_PQ^T(it):              1
  RPA_IM_TIME_INFO| Number of periodic images T for Chi_PQ^T(it):              1
  RPA_IM_TIME_INFO| Number of periodic images T for Chi_PQ^T(it):              1
  RPA_IM_TIME_INFO| Number of periodic images T for Chi_PQ^T(it):              1
  RPA_IM_TIME_INFO| Number of periodic images T for Chi_PQ^T(it):              1
  RPA_IM_TIME_INFO| Number of periodic images T for Chi_PQ^T(it):              1
  RPA_IM_TIME_INFO| Number of periodic images T for Chi_PQ^T(it):              1
  RPA_IM_TIME_INFO| Number of periodic images T for Chi_PQ^T(it):              1
  
  GW quasiparticle energies
  -------------------------
   
  The GW quasiparticle energies are calculated according to: 
  E_GW = E_SCF + Z * ( Sigc(E_SCF) + Sigx - vxc )
   
  The energy unit of the following table is eV.  Sigc_fit is a very conservative
  estimate of the statistical error of the fitting.
   
            MO      E_SCF       Sigc   Sigc_fit   Sigx-vxc          Z       E_GW
    13 ( occ )    -28.433      7.582      0.000    -13.022      1.000    -33.873
    14 ( occ )    -28.427      7.585      0.000    -13.020      1.000    -33.863
    15 ( occ )    -27.862      7.623      0.000    -12.976      1.000    -33.215
    16 ( occ )    -27.862      7.560      0.000    -12.974      1.000    -33.277
    17 ( occ )    -27.862      7.620      0.000    -12.976      1.000    -33.218
    18 ( occ )    -27.862      7.568      0.000    -12.975      1.000    -33.269
    19 ( occ )    -27.849      7.552      0.000    -12.987      1.000    -33.284
    20 ( occ )    -27.849      7.569      0.000    -12.987      1.000    -33.267
    21 ( occ )     -3.775      0.521      0.000     -1.640      1.000     -4.894
    22 ( occ )     -2.623     -0.531      0.000     -0.951      1.000     -4.106
    23 ( vir )     -2.056     -1.410      0.000      2.479      1.000     -0.986
    24 ( vir )     -1.442     -1.250      0.000      2.202      1.000     -0.490
    25 ( vir )     -1.327     -1.380      0.000      2.309      1.000     -0.399
    26 ( vir )     -0.866     -1.465      0.000      2.312      1.000     -0.019
    27 ( vir )     -0.587     -1.325      0.000      2.040      1.000      0.128
    28 ( vir )     -0.503     -1.404      0.000      2.125      1.000      0.217
    29 ( vir )     -0.467     -1.269      0.000      2.068      1.000      0.332
    30 ( vir )      0.004     -1.053      0.000      1.700      1.000      0.650
    31 ( vir )      0.169     -1.041      0.000      1.744      1.000      0.871
    32 ( vir )      0.306     -0.595      0.000      1.416      1.000      1.127
   
  GW HOMO-LUMO gap (eV)                                                     3.12
  

  Total RI-RPA Time=                                                  752.766812
  RI-RPA energy  =                                             -1.09405254661181

  Total EXX Time=                                                      10.608826
  EXX energy  =                                               -55.83987419907127

 ENERGY| Total FORCE_EVAL ( QS ) energy (a.u.):             -648.504370831118194


 -------------------------------------------------------------------------------
 -                                                                             -
 -                                DBCSR STATISTICS                             -
 -                                                                             -
 -------------------------------------------------------------------------------
 COUNTER                                    TOTAL       BLAS       SMM       ACC
 flops    92 x    92 x    46              3114752     100.0%      0.0%      0.0%
 flops    46 x    92 x    46              3114752     100.0%      0.0%      0.0%
 flops    92 x    46 x    46              3114752     100.0%      0.0%      0.0%
 flops    46 x    46 x    46              6229504     100.0%      0.0%      0.0%
 flops    46 x    46 x    22             12103520     100.0%      0.0%      0.0%
 flops   460 x    92 x    46           7475404800     100.0%      0.0%      0.0%
 flops   230 x    46 x    46           7475404800     100.0%      0.0%      0.0%
 flops   230 x    92 x    46           7475404800     100.0%      0.0%      0.0%
 flops   460 x    46 x    46           7475404800     100.0%      0.0%      0.0%
 flops   230 x   230 x   230          18688512000     100.0%      0.0%      0.0%
 flops   460 x    92 x   230          18688512000     100.0%      0.0%      0.0%
 flops   230 x    46 x   230          18688512000     100.0%      0.0%      0.0%
 flops   230 x    92 x   230          18688512000     100.0%      0.0%      0.0%
 flops   460 x    46 x   230          18688512000     100.0%      0.0%      0.0%
 flops    46 x  1794 x    46          94264854528     100.0%      0.0%      0.0%
 flops    46 x  1748 x    46         183695613952     100.0%      0.0%      0.0%
 flops   230 x   230 x  1380         224262144000     100.0%      0.0%      0.0%
 flops   230 x   230 x  1426         463475097600     100.0%      0.0%      0.0%
 flops inhomo. stacks                           0       0.0%      0.0%      0.0%
 flops total                         1.089070E+12     100.0%      0.0%      0.0%
 flops max/rank                     71.290960E+09     100.0%      0.0%      0.0%
 matmuls inhomo. stacks                         0       0.0%      0.0%      0.0%
 matmuls total                              68726     100.0%      0.0%      0.0%
 number of processed stacks                 27392     100.0%      0.0%      0.0%
 average stack size                                     2.5       0.0       0.0
 marketing flops                     1.097663E+12
 -------------------------------------------------------------------------------
 # multiplications                            784
 max memory usage/rank             628.985856E+06
 # max total images/rank                        3
 # max 3D layers                                1
 # MPI messages exchanged                  340632
 MPI messages size (bytes):
  total size                        13.397724E+09
  min size                           0.000000E+00
  max size                         846.400000E+03
  average size                      39.331961E+03
 MPI breakdown and total messages size (bytes):
             size <=      128              269880                        0
       128 < size <=     8192                 208                  1683968
      8192 < size <=    32768               11740                198658176
     32768 < size <=   131072               30772               2309385472
    131072 < size <=  4194304               28032              10888089600
   4194304 < size <= 16777216                   0                        0
  16777216 < size                               0                        0
 -------------------------------------------------------------------------------

 *** WARNING in dbcsr_mm.F:278 :: Using a non-square number of MPI ranks ***
 *** might lead to poor performance. Used ranks: 24 Suggested: 25 49     ***

 -------------------------------------------------------------------------------
 -                                                                             -
 -                      DBCSR MESSAGE PASSING PERFORMANCE                      -
 -                                                                             -
 -------------------------------------------------------------------------------

 ROUTINE             CALLS      AVE VOLUME [Bytes]
 MP_Group               47
 MP_Bcast               19                     12.
 MP_Allreduce         4468                      8.
 MP_Alltoall          2612                  64346.
 MP_Wait             42720
 MP_ISend            31546                  46261.
 MP_IRecv            31570                  23299.
 MP_Memory           57764
 -------------------------------------------------------------------------------


 MEMORY| Estimated peak process memory [MiB]                                 600

 -------------------------------------------------------------------------------
 ----                             MULTIGRID INFO                            ----
 -------------------------------------------------------------------------------
 count for grid        1:         107954          cutoff [a.u.]          200.00
 count for grid        2:           8652          cutoff [a.u.]           66.67
 count for grid        3:           7403          cutoff [a.u.]           22.22
 count for grid        4:          11168          cutoff [a.u.]            7.41
 total gridlevel count  :         135177

 -------------------------------------------------------------------------------
 -                                                                             -
 -                         MESSAGE PASSING PERFORMANCE                         -
 -                                                                             -
 -------------------------------------------------------------------------------

 ROUTINE             CALLS      AVE VOLUME [Bytes]
 MP_Group                5
 MP_Bcast              227                1220205.
 MP_Allreduce          684                 228969.
 MP_Sync                76
 MP_Alltoall           353               10265324.
 MP_ISendRecv         1380                  71734.
 MP_Wait              4320
 MP_comm_split          22
 MP_ISend             5020                 242343.
 MP_IRecv             4678                 344052.
 MP_Recv                 5                   5888.
 -------------------------------------------------------------------------------


 -------------------------------------------------------------------------------
 -                                                                             -
 -                           R E F E R E N C E S                               -
 -                                                                             -
 -------------------------------------------------------------------------------
 
 CP2K version 7.0 (Development Version), the CP2K developers group (2018).
 CP2K is freely available from https://www.cp2k.org/ .

 Schuett, Ole; Messmer, Peter; Hutter, Juerg; VandeVondele, Joost. 
 Electronic Structure Calculations on Graphics Processing Units, John Wiley & Sons, Ltd, 173-190 (2016). 
 GPU-Accelerated Sparse Matrix-Matrix Multiplication for Linear Scaling Density Functional Theory.
 https://dx.doi.org/10.1002/9781118670712.ch8


 Del Ben, M; Schuett, O; Wentz, T; Messmer, P; Hutter, J;
 VandeVondele, J. 
 COMPUTER PHYSICS COMMUNICATIONS, 187, 120-129 (2015). 
 Enabling simulation at the fifth rung of DFT: Large scale RPA
 calculations with excellent time to solution.
 https://dx.doi.org/10.1016/j.cpc.2014.10.021


 Borstnik, U; VandeVondele, J; Weber, V; Hutter, J. 
 PARALLEL COMPUTING, 40 (5-6), 47-58 (2014). 
 Sparse matrix multiplication: The distributed block-compressed sparse
 row library.
 https://dx.doi.org/10.1016/j.parco.2014.03.012


 Hutter, J; Iannuzzi, M; Schiffmann, F; VandeVondele, J. 
 WILEY INTERDISCIPLINARY REVIEWS-COMPUTATIONAL MOLECULAR SCIENCE, 4 (1), 15-25 (2014). 
 CP2K: atomistic simulations of condensed matter systems.
 https://dx.doi.org/10.1002/wcms.1159


 Del Ben, M; Hutter, J; VandeVondele, J. 
 JOURNAL OF CHEMICAL THEORY AND COMPUTATION, 9 (6), 2654-2671 (2013). 
 Electron Correlation in the Condensed Phase from a Resolution of
 Identity Approach Based on the Gaussian and Plane Waves Scheme.
 https://dx.doi.org/10.1021/ct4002202


 Del Ben, M; Hutter, J; VandeVondele, J. 
 JOURNAL OF CHEMICAL THEORY AND COMPUTATION, 8 (11), 4177-4188 (2012). 
 Second-Order Moller-Plesset Perturbation Theory in the Condensed Phase:
 An Efficient and Massively Parallel Gaussian and Plane Waves Approach.
 https://dx.doi.org/10.1021/ct300531w


 Guidon, M; Hutter, J; VandeVondele, J. 
 JOURNAL OF CHEMICAL THEORY AND COMPUTATION, 5 (11), 3010-3021 (2009). 
 Robust Periodic Hartree-Fock Exchange for Large-Scale Simulations Using
 Gaussian Basis Sets.
 https://dx.doi.org/10.1021/ct900494g


 Guidon, M; Schiffmann, F; Hutter, J; VandeVondele, J. 
 JOURNAL OF CHEMICAL PHYSICS, 128 (21), 214104 (2008). 
 Ab initio molecular dynamics using hybrid density functionals.
 https://dx.doi.org/10.1063/1.2931945


 Frigo, M; Johnson, SG. 
 PROCEEDINGS OF THE IEEE, 93 (2), 216-231 (2005). 
 The design and implementation of FFTW3.
 https://dx.doi.org/10.1109/JPROC.2004.840301


 Lippert, G; Hutter, J; Parrinello, M. 
 THEORETICAL CHEMISTRY ACCOUNTS, 103 (2), 124-140 (1999). 
 The Gaussian and augmented-plane-wave density functional method for ab
 initio molecular dynamics simulations.
 https://dx.doi.org/10.1007/s002140050523


 Krack, M; Parrinello, M. 
 PHYSICAL CHEMISTRY CHEMICAL PHYSICS, 2 (10), 2105-2112 (2000). 
 All-electron ab-initio molecular dynamics.
 https://dx.doi.org/10.1039/b001167n


 Martyna, GJ; Tuckerman, ME. 
 JOURNAL OF CHEMICAL PHYSICS, 110 (6), 2810-2821 (1999). 
 A reciprocal space based method for treating long range interactions in
 ab initio and force-field-based calculations in clusters.
 https://dx.doi.org/10.1063/1.477923


 Perdew, JP; Burke, K; Ernzerhof, M. 
 PHYSICAL REVIEW LETTERS, 77 (18), 3865-3868 (1996). 
 Generalized gradient approximation made simple.
 https://dx.doi.org/10.1103/PhysRevLett.77.3865


 -------------------------------------------------------------------------------
 -                                                                             -
 -                                T I M I N G                                  -
 -                                                                             -
 -------------------------------------------------------------------------------
 SUBROUTINE                       CALLS  ASD         SELF TIME        TOTAL TIME
                                MAXIMUM       AVERAGE  MAXIMUM  AVERAGE  MAXIMUM
 CP2K                                 1  1.0    0.016    0.026  807.426  807.427
 qs_energies                          1  2.0    0.000    0.000  806.401  806.404
 mp2_main                             1  3.0    0.000    0.001  763.394  763.398
 mp2_gpw_main                         1  4.0    0.000    0.000  752.767  752.771
 mp2_ri_gpw_compute_in                1  5.0    0.000    0.000  657.183  680.365
 compute_3c_overlap_int               1  6.0  192.219  200.920  650.034  673.212
 compute_3c_overlap_int_put_dbc  196638  7.0  455.765  473.331  455.765  473.331
 mp_comm_split_direct                 8  6.6   25.015  124.926   25.015  124.926
 create_dbcsr_matrices_im_time        1  5.0    0.001    0.001   23.185  123.300
 rpa_ri_compute_en                    1  5.0    0.000    0.000   72.397   72.400
 rpa_num_int                          1  6.0    0.001    0.003   72.394   72.397
 dbcsr_multiply_generic             784  9.9    0.060    0.072   51.240   55.586
 multiply_cannon                    784 10.9    0.162    0.188   45.845   50.785
 compute_mat_P_omega                  1  7.0    0.000    0.000   47.285   47.285
 multiply_cannon_multrec           9001 11.9   36.190   46.917   37.701   47.065
 scf_env_do_scf                       1  3.0    0.000    0.000   42.057   42.057
 scf_env_do_scf_inner_loop           13  4.0    0.001    0.001   42.057   42.057
 compute_mat_P_omega_calc_P          12  8.0    0.000    0.001   37.312   37.478
 qs_ks_build_kohn_sham_matrix        14  6.9    0.003    0.004   36.726   36.745
 qs_ks_update_qs_env                 13  5.0    0.000    0.000   35.455   35.472
 rebuild_ks_matrix                   13  6.0    0.000    0.000   35.454   35.471
 pw_transfer                        291  9.5    0.030    0.032   20.497   21.083
 fft_wrap_pw1pw2                    247 10.6    0.004    0.005   20.140   20.737
 fft_wrap_pw1pw2_200                162 11.7    1.498    1.609   19.087   19.613
 -------------------------------------------------------------------------------

 The number of warnings for this run is : 3
 
 -------------------------------------------------------------------------------
  **** **** ******  **  PROGRAM ENDED AT                 2019-05-31 10:58:59.568
 ***** ** ***  *** **   PROGRAM RAN ON                                    tcopt4
 **    ****   ******    PROGRAM RAN BY                                   wilhelm
 ***** **    ** ** **   PROGRAM PROCESS ID                                 44358
  **** **  *******  **  PROGRAM STOPPED IN /data/wilhelm/2_job_test/11_GW100/3_c
                                           alcs/09_Na4
