 DBCSR| CPU Multiplication driver                                           BLAS
 DBCSR| Multrec recursion limit                                              512
 DBCSR| Multiplication stack size                                           1000
 DBCSR| Maximum elements for images                                    UNLIMITED
 DBCSR| Multiplicative factor virtual images                                   1
 DBCSR| Use multiplication densification                                       T
 DBCSR| Multiplication size stacks                                             3
 DBCSR| Number of 3D layers                                               SINGLE
 DBCSR| Use MPI memory allocation                                              T
 DBCSR| Use RMA algorithm                                                      F
 DBCSR| Use Communication thread                                               T
 DBCSR| Communication thread load                                             87


  **** **** ******  **  PROGRAM STARTED AT               2019-06-07 02:58:41.870
 ***** ** ***  *** **   PROGRAM STARTED ON                                tcopt4
 **    ****   ******    PROGRAM STARTED BY                               wilhelm
 ***** **    ** ** **   PROGRAM PROCESS ID                                 51202
  **** **  *******  **  PROGRAM STARTED IN /data/wilhelm/2_job_test/11_GW100/3_c
                                           alcs/03_Ar

 CP2K| version string:                    CP2K version 7.0 (Development Version)
 CP2K| source code revision number:                                  git:bc2813a
 CP2K| cp2kflags: libint fftw3 libxc pexsi elpa=201705 parallel mpi3 scalapack q
 CP2K|            uip libderiv_max_am1=5 libint_max_am=6
 CP2K| is freely available from                            https://www.cp2k.org/
 CP2K| Program compiled at                         Sun Jun  2 14:38:23 CEST 2019
 CP2K| Program compiled on                                                tcopt4
 CP2K| Program compiled for                            local_valgrind_March_2019
 CP2K| Data directory path              /data/wilhelm/1_git_repository/cp2k/data
 CP2K| Input file name                                                    GW.inp

 GLOBAL| Force Environment number                                              1
 GLOBAL| Basis set file name                              BASIS_def2_QZVP_RI_ALL
 GLOBAL| Potential file name                                           POTENTIAL
 GLOBAL| MM Potential file name                                     MM_POTENTIAL
 GLOBAL| Coordinate file name                                          03_Ar.xyz
 GLOBAL| Method name                                                        CP2K
 GLOBAL| Project name                                                   ALL_ELEC
 GLOBAL| Preferred FFT library                                             FFTW3
 GLOBAL| Preferred diagonalization lib.                                       SL
 GLOBAL| Run type                                                         ENERGY
 GLOBAL| All-to-all communication in single precision                          F
 GLOBAL| FFTs using library dependent lengths                                  F
 GLOBAL| Global print level                                               MEDIUM
 GLOBAL| MPI I/O enabled                                                       T
 GLOBAL| Total number of message passing processes                            24
 GLOBAL| Number of threads for this process                                    1
 GLOBAL| This output is from process                                           0
 GLOBAL| CPU model name :  Intel(R) Xeon(R) CPU E5-2697 v3 @ 2.60GHz

 MEMORY| system memory details [Kb]
 MEMORY|                        rank 0           min           max       average
 MEMORY| MemTotal            396954008     396954008     396954008     396954008
 MEMORY| MemFree             349880788     349880788     349880788     349880788
 MEMORY| Buffers                273604        273604        273604        273604
 MEMORY| Cached               34592772      34592772      34592772      34592772
 MEMORY| Slab                  1193996       1193996       1193996       1193996
 MEMORY| SReclaimable          1056076       1056076       1056076       1056076
 MEMORY| MemLikelyFree       385803240     385803240     385803240     385803240


 *** Fundamental physical constants (SI units) ***

 *** Literature: B. J. Mohr and B. N. Taylor,
 ***             CODATA recommended values of the fundamental physical
 ***             constants: 2006, Web Version 5.1
 ***             http://physics.nist.gov/constants

 Speed of light in vacuum [m/s]                             2.99792458000000E+08
 Magnetic constant or permeability of vacuum [N/A**2]       1.25663706143592E-06
 Electric constant or permittivity of vacuum [F/m]          8.85418781762039E-12
 Planck constant (h) [J*s]                                  6.62606896000000E-34
 Planck constant (h-bar) [J*s]                              1.05457162825177E-34
 Elementary charge [C]                                      1.60217648700000E-19
 Electron mass [kg]                                         9.10938215000000E-31
 Electron g factor [ ]                                     -2.00231930436220E+00
 Proton mass [kg]                                           1.67262163700000E-27
 Fine-structure constant                                    7.29735253760000E-03
 Rydberg constant [1/m]                                     1.09737315685270E+07
 Avogadro constant [1/mol]                                  6.02214179000000E+23
 Boltzmann constant [J/K]                                   1.38065040000000E-23
 Atomic mass unit [kg]                                      1.66053878200000E-27
 Bohr radius [m]                                            5.29177208590000E-11

 *** Conversion factors ***

 [u] -> [a.u.]                                              1.82288848426455E+03
 [Angstrom] -> [Bohr] = [a.u.]                              1.88972613288564E+00
 [a.u.] = [Bohr] -> [Angstrom]                              5.29177208590000E-01
 [a.u.] -> [s]                                              2.41888432650478E-17
 [a.u.] -> [fs]                                             2.41888432650478E-02
 [a.u.] -> [J]                                              4.35974393937059E-18
 [a.u.] -> [N]                                              8.23872205491840E-08
 [a.u.] -> [K]                                              3.15774647902944E+05
 [a.u.] -> [kJ/mol]                                         2.62549961709828E+03
 [a.u.] -> [kcal/mol]                                       6.27509468713739E+02
 [a.u.] -> [Pa]                                             2.94210107994716E+13
 [a.u.] -> [bar]                                            2.94210107994716E+08
 [a.u.] -> [atm]                                            2.90362800883016E+08
 [a.u.] -> [eV]                                             2.72113838565563E+01
 [a.u.] -> [Hz]                                             6.57968392072181E+15
 [a.u.] -> [1/cm] (wave numbers)                            2.19474631370540E+05
 [a.u./Bohr**2] -> [1/cm]                                   5.14048714338585E+03
 

 CELL_TOP| Volume [angstrom^3]:                                         4096.000
 CELL_TOP| Vector a [angstrom    16.000     0.000     0.000    |a| =      16.000
 CELL_TOP| Vector b [angstrom     0.000    16.000     0.000    |b| =      16.000
 CELL_TOP| Vector c [angstrom     0.000     0.000    16.000    |c| =      16.000
 CELL_TOP| Angle (b,c), alpha [degree]:                                   90.000
 CELL_TOP| Angle (a,c), beta  [degree]:                                   90.000
 CELL_TOP| Angle (a,b), gamma [degree]:                                   90.000
 CELL_TOP| Numerically orthorhombic:                                         YES

 GENERATE|  Preliminary Number of Bonds generated:                             0
 GENERATE|  Achieved consistency in connectivity generation.

 CELL| Volume [angstrom^3]:                                             4096.000
 CELL| Vector a [angstrom]:      16.000     0.000     0.000    |a| =      16.000
 CELL| Vector b [angstrom]:       0.000    16.000     0.000    |b| =      16.000
 CELL| Vector c [angstrom]:       0.000     0.000    16.000    |c| =      16.000
 CELL| Angle (b,c), alpha [degree]:                                       90.000
 CELL| Angle (a,c), beta  [degree]:                                       90.000
 CELL| Angle (a,b), gamma [degree]:                                       90.000
 CELL| Numerically orthorhombic:                                             YES

 CELL_REF| Volume [angstrom^3]:                                         4096.000
 CELL_REF| Vector a [angstrom    16.000     0.000     0.000    |a| =      16.000
 CELL_REF| Vector b [angstrom     0.000    16.000     0.000    |b| =      16.000
 CELL_REF| Vector c [angstrom     0.000     0.000    16.000    |c| =      16.000
 CELL_REF| Angle (b,c), alpha [degree]:                                   90.000
 CELL_REF| Angle (a,c), beta  [degree]:                                   90.000
 CELL_REF| Angle (a,b), gamma [degree]:                                   90.000
 CELL_REF| Numerically orthorhombic:                                         YES

 *******************************************************************************
 *******************************************************************************
 **                                                                           **
 **     #####                         ##              ##                      **
 **    ##   ##            ##          ##              ##                      **
 **   ##     ##                       ##            ######                    **
 **   ##     ##  ##   ##  ##   #####  ##  ##   ####   ##    #####    #####    **
 **   ##     ##  ##   ##  ##  ##      ## ##   ##      ##   ##   ##  ##   ##   **
 **   ##  ## ##  ##   ##  ##  ##      ####     ###    ##   ######   ######    **
 **    ##  ###   ##   ##  ##  ##      ## ##      ##   ##   ##       ##        **
 **     #######   #####   ##   #####  ##  ##  ####    ##    #####   ##        **
 **           ##                                                    ##        **
 **                                                                           **
 **                                                ... make the atoms dance   **
 **                                                                           **
 **            Copyright (C) by CP2K developers group (2000 - 2019)           **
 **                                                                           **
 *******************************************************************************

 DFT| Spin restricted Kohn-Sham (RKS) calculation                            RKS
 DFT| Multiplicity                                                             1
 DFT| Number of spin states                                                    1
 DFT| Charge                                                                   0
 DFT| Self-interaction correction (SIC)                                       NO
 DFT| Cutoffs: density                                              1.000000E-10
 DFT|          gradient                                             1.000000E-10
 DFT|          tau                                                  1.000000E-10
 DFT|          cutoff_smoothing_range                               0.000000E+00
 DFT| XC density smoothing                                                  NONE
 DFT| XC derivatives                                                          PW
 FUNCTIONAL| ROUTINE=NEW
 FUNCTIONAL| PBE:
 FUNCTIONAL| J.P.Perdew, K.Burke, M.Ernzerhof, Phys. Rev. Letter, vol. 77, n 18,
 FUNCTIONAL|  pp. 3865-3868, (1996){spin unpolarized}                           

 QS| Method:                                                                GAPW
 QS| Density plane wave grid type                        NON-SPHERICAL FULLSPACE
 QS| Number of grid levels:                                                    4
 QS| Density cutoff [a.u.]:                                                200.0
 QS| Multi grid cutoff [a.u.]: 1) grid level                               200.0
 QS|                           2) grid level                                66.7
 QS|                           3) grid level                                22.2
 QS|                           4) grid level                                 7.4
 QS| Grid level progression factor:                                          3.0
 QS| Relative density cutoff [a.u.]:                                        25.0
 QS| Consistent realspace mapping and integration 
 QS| Interaction thresholds: eps_pgf_orb:                                1.0E-05
 QS|                         eps_filter_matrix:                          0.0E+00
 QS|                         eps_core_charge:                            1.0E-12
 QS|                         eps_rho_gspace:                             1.0E-10
 QS|                         eps_rho_rspace:                             1.0E-10
 QS|                         eps_gvg_rspace:                             1.0E-05
 QS|                         eps_ppl:                                    1.0E-02
 QS|                         eps_ppnl:                                   1.0E-07
 QS| GAPW|                   eps_fit:                                    1.0E-04
 QS| GAPW|                   eps_iso:                                    1.0E-12
 QS| GAPW|                   eps_svd:                                    1.0E-08
 QS| GAPW|                   eps_cpc:                                    1.0E-10
 QS| GAPW|   atom-r-grid: quadrature:                 GC_LOG                        
 QS| GAPW|      atom-s-grid:  max l :                                          8
 QS| GAPW|      max_l_rho0 :                                                   2


 ATOMIC KIND INFORMATION

  1. Atomic kind: Ar                                    Number of atoms:       1

     Orbital Basis Set                                                 def2-QZVP

       Number of orbital shell sets:                                          22
       Number of orbital shells:                                              22
       Number of primitive Cartesian functions:                               41
       Number of Cartesian basis functions:                                   86
       Number of spherical basis functions:                                   70
       Norm type:                                                              2

       Normalised Cartesian orbitals:

                        Set   Shell   Orbital            Exponent    Coefficient

                          1       1    1s          1673421.949400       0.463386
                                                    250601.753730       0.867222
                                                     57030.912120       1.502171
                                                     16153.303915       2.457139
                                                      5269.410929       3.833749
                                                      1902.031554       5.691073
                                                       741.576772       7.904485
                                                       307.209019       9.813552
                                                       133.527862       9.988689
                                                        60.253381       6.968757

                          2       1    1s              522.024262       1.772500
                                                       161.512905       6.693127
                                                        62.126369      12.698957

                          3       1    1s               27.590930       8.579952

                          4       1    1s               11.175529       4.356234

                          5       1    1s                5.295907       2.488086

                          6       1    1s                2.478280       1.407741

                          7       1    1s                0.912621       0.665469

                          8       1    1s                0.404261       0.361332

                          9       1    1s                0.165629       0.185039

                         10       1    1px            2868.450458       7.450427
                                                       679.718696      10.724554
                                                       220.367588      14.268915
                                                        83.620440      16.783323
                                                        34.964323      16.635967
                                                        15.525132      12.622380
                                                         7.099298       6.614328
                                                         3.302134       1.874788
                         10       1    1py            2868.450458       7.450427
                                                       679.718696      10.724554
                                                       220.367588      14.268915
                                                        83.620440      16.783323
                                                        34.964323      16.635967
                                                        15.525132      12.622380
                                                         7.099298       6.614328
                                                         3.302134       1.874788
                         10       1    1pz            2868.450458       7.450427
                                                       679.718696      10.724554
                                                       220.367588      14.268915
                                                        83.620440      16.783323
                                                        34.964323      16.635967
                                                        15.525132      12.622380
                                                         7.099298       6.614328
                                                         3.302134       1.874788

                         11       1    1px             128.787657     -29.626561
                                                         8.435787      20.626710
                         11       1    1py             128.787657     -29.626561
                                                         8.435787      20.626710
                         11       1    1pz             128.787657     -29.626561
                                                         8.435787      20.626710

                         12       1    1px               1.461866       2.291261
                         12       1    1py               1.461866       2.291261
                         12       1    1pz               1.461866       2.291261

                         13       1    1px               0.646580       0.826453
                         13       1    1py               0.646580       0.826453
                         13       1    1pz               0.646580       0.826453

                         14       1    1px               0.272293       0.280373
                         14       1    1py               0.272293       0.280373
                         14       1    1pz               0.272293       0.280373

                         15       1    1px               0.109052       0.089327
                         15       1    1py               0.109052       0.089327
                         15       1    1pz               0.109052       0.089327

                         16       1    1dx2              6.315000      41.405957
                         16       1    1dxy              6.315000      71.717221
                         16       1    1dxz              6.315000      71.717221
                         16       1    1dy2              6.315000      41.405957
                         16       1    1dyz              6.315000      71.717221
                         16       1    1dz2              6.315000      41.405957

                         17       1    1dx2              1.562000       3.592123
                         17       1    1dxy              1.562000       6.221740
                         17       1    1dxz              1.562000       6.221740
                         17       1    1dy2              1.562000       3.592123
                         17       1    1dyz              1.562000       6.221740
                         17       1    1dz2              1.562000       3.592123

                         18       1    1dx2              0.715000       0.915050
                         18       1    1dxy              0.715000       1.584914
                         18       1    1dxz              0.715000       1.584914
                         18       1    1dy2              0.715000       0.915050
                         18       1    1dyz              0.715000       1.584914
                         18       1    1dz2              0.715000       0.915050

                         19       1    1dx2              0.297000       0.196668
                         19       1    1dxy              0.297000       0.340639
                         19       1    1dxz              0.297000       0.340639
                         19       1    1dy2              0.297000       0.196668
                         19       1    1dyz              0.297000       0.340639
                         19       1    1dz2              0.297000       0.196668

                         20       1    1fx3              0.543000       0.372610
                         20       1    1fx2y             0.543000       0.833180
                         20       1    1fx2z             0.543000       0.833180
                         20       1    1fxy2             0.543000       0.833180
                         20       1    1fxyz             0.543000       1.443111
                         20       1    1fxz2             0.543000       0.833180
                         20       1    1fy3              0.543000       0.372610
                         20       1    1fy2z             0.543000       0.833180
                         20       1    1fyz2             0.543000       0.833180
                         20       1    1fz3              0.543000       0.372610

                         21       1    1fx3              1.325000       2.772938
                         21       1    1fx2y             1.325000       6.200478
                         21       1    1fx2z             1.325000       6.200478
                         21       1    1fxy2             1.325000       6.200478
                         21       1    1fxyz             1.325000      10.739543
                         21       1    1fxz2             1.325000       6.200478
                         21       1    1fy3              1.325000       2.772938
                         21       1    1fy2z             1.325000       6.200478
                         21       1    1fyz2             1.325000       6.200478
                         21       1    1fz3              1.325000       2.772938

                         22       1    1gx4              1.007000       1.134401
                         22       1    1gx3y             1.007000       3.001342
                         22       1    1gx3z             1.007000       3.001342
                         22       1    1gx2y2            1.007000       3.874716
                         22       1    1gx2yz            1.007000       6.711205
                         22       1    1gx2z2            1.007000       3.874716
                         22       1    1gxy3             1.007000       3.001342
                         22       1    1gxy2z            1.007000       6.711205
                         22       1    1gxyz2            1.007000       6.711205
                         22       1    1gxz3             1.007000       3.001342
                         22       1    1gy4              1.007000       1.134401
                         22       1    1gy3z             1.007000       3.001342
                         22       1    1gy2z2            1.007000       3.874716
                         22       1    1gyz3             1.007000       3.001342
                         22       1    1gz4              1.007000       1.134401

     RI Auxiliary Basis Set                                                RI-5Z

       Number of orbital shell sets:                                          48
       Number of orbital shells:                                              48
       Number of primitive Cartesian functions:                               48
       Number of Cartesian basis functions:                                  335
       Number of spherical basis functions:                                  230
       Norm type:                                                              2

       Normalised Cartesian orbitals:

                        Set   Shell   Orbital            Exponent    Coefficient

                          1       1    1s             1632.400000     183.033267

                          2       1    1s              367.092000      59.771105

                          3       1    1s              141.245000      29.200474

                          4       1    1s               40.798600      11.505196

                          5       1    1s               15.830600       5.656309

                          6       1    1s                9.571350       3.878287

                          7       1    1s                4.017950       2.022616

                          8       1    1s                2.242480       1.306040

                          9       1    1s                1.447090       0.940333

                         10       1    1s                0.835157       0.622639

                         11       1    1s                0.426737       0.376297

                         12       1    1s                0.208720       0.220081

                         13       1    1px             485.335000    3247.073374
                         13       1    1py             485.335000    3247.073374
                         13       1    1pz             485.335000    3247.073374

                         14       1    1px             137.597000     671.740131
                         14       1    1py             137.597000     671.740131
                         14       1    1pz             137.597000     671.740131

                         15       1    1px              45.817000     169.911745
                         15       1    1py              45.817000     169.911745
                         15       1    1pz              45.817000     169.911745

                         16       1    1px              21.954400      67.739510
                         16       1    1py              21.954400      67.739510
                         16       1    1pz              21.954400      67.739510

                         17       1    1px              10.413800      26.665616
                         17       1    1py              10.413800      26.665616
                         17       1    1pz              10.413800      26.665616

                         18       1    1px               5.136250      11.021680
                         18       1    1py               5.136250      11.021680
                         18       1    1pz               5.136250      11.021680

                         19       1    1px               2.481490       4.439466
                         19       1    1py               2.481490       4.439466
                         19       1    1pz               2.481490       4.439466

                         20       1    1px               1.576600       2.518210
                         20       1    1py               1.576600       2.518210
                         20       1    1pz               1.576600       2.518210

                         21       1    1px               0.904538       1.257400
                         21       1    1py               0.904538       1.257400
                         21       1    1pz               0.904538       1.257400

                         22       1    1px               0.602234       0.756217
                         22       1    1py               0.602234       0.756217
                         22       1    1pz               0.602234       0.756217

                         23       1    1px               0.309913       0.329602
                         23       1    1py               0.309913       0.329602
                         23       1    1pz               0.309913       0.329602

                         24       1    1dx2            137.830000    9125.591614
                         24       1    1dxy            137.830000   15805.988325
                         24       1    1dxz            137.830000   15805.988325
                         24       1    1dy2            137.830000    9125.591614
                         24       1    1dyz            137.830000   15805.988325
                         24       1    1dz2            137.830000    9125.591614

                         25       1    1dx2             46.193700    1347.191295
                         25       1    1dxy             46.193700    2333.403770
                         25       1    1dxz             46.193700    2333.403770
                         25       1    1dy2             46.193700    1347.191295
                         25       1    1dyz             46.193700    2333.403770
                         25       1    1dz2             46.193700    1347.191295

                         26       1    1dx2             15.954400     209.628482
                         26       1    1dxy             15.954400     363.087182
                         26       1    1dxz             15.954400     363.087182
                         26       1    1dy2             15.954400     209.628482
                         26       1    1dyz             15.954400     363.087182
                         26       1    1dz2             15.954400     209.628482

                         27       1    1dx2              7.435920      55.111876
                         27       1    1dxy              7.435920      95.456570
                         27       1    1dxz              7.435920      95.456570
                         27       1    1dy2              7.435920      55.111876
                         27       1    1dyz              7.435920      95.456570
                         27       1    1dz2              7.435920      55.111876

                         28       1    1dx2              3.121150      12.063132
                         28       1    1dxy              3.121150      20.893957
                         28       1    1dxz              3.121150      20.893957
                         28       1    1dy2              3.121150      12.063132
                         28       1    1dyz              3.121150      20.893957
                         28       1    1dz2              3.121150      12.063132

                         29       1    1dx2              1.885900       4.995364
                         29       1    1dxy              1.885900       8.652224
                         29       1    1dxz              1.885900       8.652224
                         29       1    1dy2              1.885900       4.995364
                         29       1    1dyz              1.885900       8.652224
                         29       1    1dz2              1.885900       4.995364

                         30       1    1dx2              1.070910       1.855569
                         30       1    1dxy              1.070910       3.213940
                         30       1    1dxz              1.070910       3.213940
                         30       1    1dy2              1.070910       1.855569
                         30       1    1dyz              1.070910       3.213940
                         30       1    1dz2              1.070910       1.855569

                         31       1    1dx2              0.539076       0.558209
                         31       1    1dxy              0.539076       0.966847
                         31       1    1dxz              0.539076       0.966847
                         31       1    1dy2              0.539076       0.558209
                         31       1    1dyz              0.539076       0.966847
                         31       1    1dz2              0.539076       0.558209

                         32       1    1dx2              0.263779       0.159801
                         32       1    1dxy              0.263779       0.276784
                         32       1    1dxz              0.263779       0.276784
                         32       1    1dy2              0.263779       0.159801
                         32       1    1dyz              0.263779       0.276784
                         32       1    1dz2              0.263779       0.159801

                         33       1    1fx3             24.986400    2054.886070
                         33       1    1fx2y            24.986400    4594.864939
                         33       1    1fx2z            24.986400    4594.864939
                         33       1    1fxy2            24.986400    4594.864939
                         33       1    1fxyz            24.986400    7958.539528
                         33       1    1fxz2            24.986400    4594.864939
                         33       1    1fy3             24.986400    2054.886070
                         33       1    1fy2z            24.986400    4594.864939
                         33       1    1fyz2            24.986400    4594.864939
                         33       1    1fz3             24.986400    2054.886070

                         34       1    1fx3             11.135500     333.465819
                         34       1    1fx2y            11.135500     745.652240
                         34       1    1fx2z            11.135500     745.652240
                         34       1    1fxy2            11.135500     745.652240
                         34       1    1fxyz            11.135500    1291.507565
                         34       1    1fxz2            11.135500     745.652240
                         34       1    1fy3             11.135500     333.465819
                         34       1    1fy2z            11.135500     745.652240
                         34       1    1fyz2            11.135500     745.652240
                         34       1    1fz3             11.135500     333.465819

                         35       1    1fx3              5.410050      65.713913
                         35       1    1fx2y             5.410050     146.940776
                         35       1    1fx2z             5.410050     146.940776
                         35       1    1fxy2             5.410050     146.940776
                         35       1    1fxyz             5.410050     254.508890
                         35       1    1fxz2             5.410050     146.940776
                         35       1    1fy3              5.410050      65.713913
                         35       1    1fy2z             5.410050     146.940776
                         35       1    1fyz2             5.410050     146.940776
                         35       1    1fz3              5.410050      65.713913

                         36       1    1fx3              3.168340      19.716324
                         36       1    1fx2y             3.168340      44.087042
                         36       1    1fx2z             3.168340      44.087042
                         36       1    1fxy2             3.168340      44.087042
                         36       1    1fxyz             3.168340      76.360996
                         36       1    1fxz2             3.168340      44.087042
                         36       1    1fy3              3.168340      19.716324
                         36       1    1fy2z             3.168340      44.087042
                         36       1    1fyz2             3.168340      44.087042
                         36       1    1fz3              3.168340      19.716324

                         37       1    1fx3              1.855510       5.915574
                         37       1    1fx2y             1.855510      13.227625
                         37       1    1fx2z             1.855510      13.227625
                         37       1    1fxy2             1.855510      13.227625
                         37       1    1fxyz             1.855510      22.910919
                         37       1    1fxz2             1.855510      13.227625
                         37       1    1fy3              1.855510       5.915574
                         37       1    1fy2z             1.855510      13.227625
                         37       1    1fyz2             1.855510      13.227625
                         37       1    1fz3              1.855510       5.915574

                         38       1    1fx3              0.975785       1.393161
                         38       1    1fx2y             0.975785       3.115202
                         38       1    1fx2z             0.975785       3.115202
                         38       1    1fxy2             0.975785       3.115202
                         38       1    1fxyz             0.975785       5.395689
                         38       1    1fxz2             0.975785       3.115202
                         38       1    1fy3              0.975785       1.393161
                         38       1    1fy2z             0.975785       3.115202
                         38       1    1fyz2             0.975785       3.115202
                         38       1    1fz3              0.975785       1.393161

                         39       1    1fx3              0.530262       0.353230
                         39       1    1fx2y             0.530262       0.789847
                         39       1    1fx2z             0.530262       0.789847
                         39       1    1fxy2             0.530262       0.789847
                         39       1    1fxyz             0.530262       1.368056
                         39       1    1fxz2             0.530262       0.789847
                         39       1    1fy3              0.530262       0.353230
                         39       1    1fy2z             0.530262       0.789847
                         39       1    1fyz2             0.530262       0.789847
                         39       1    1fz3              0.530262       0.353230

                         40       1    1gx4              8.130670     354.227966
                         40       1    1gx3y             8.130670     937.199106
                         40       1    1gx3z             8.130670     937.199106
                         40       1    1gx2y2            8.130670    1209.918843
                         40       1    1gx2yz            8.130670    2095.640910
                         40       1    1gx2z2            8.130670    1209.918843
                         40       1    1gxy3             8.130670     937.199106
                         40       1    1gxy2z            8.130670    2095.640910
                         40       1    1gxyz2            8.130670    2095.640910
                         40       1    1gxz3             8.130670     937.199106
                         40       1    1gy4              8.130670     354.227966
                         40       1    1gy3z             8.130670     937.199106
                         40       1    1gy2z2            8.130670    1209.918843
                         40       1    1gyz3             8.130670     937.199106
                         40       1    1gz4              8.130670     354.227966

                         41       1    1gx4              3.492280      34.672514
                         41       1    1gx3y             3.492280      91.734849
                         41       1    1gx3z             3.492280      91.734849
                         41       1    1gx2y2            3.492280     118.429181
                         41       1    1gx2yz            3.492280     205.125359
                         41       1    1gx2z2            3.492280     118.429181
                         41       1    1gxy3             3.492280      91.734849
                         41       1    1gxy2z            3.492280     205.125359
                         41       1    1gxyz2            3.492280     205.125359
                         41       1    1gxz3             3.492280      91.734849
                         41       1    1gy4              3.492280      34.672514
                         41       1    1gy3z             3.492280      91.734849
                         41       1    1gy2z2            3.492280     118.429181
                         41       1    1gyz3             3.492280      91.734849
                         41       1    1gz4              3.492280      34.672514

                         42       1    1gx4              2.007610       7.564908
                         42       1    1gx3y             2.007610      20.014865
                         42       1    1gx3z             2.007610      20.014865
                         42       1    1gx2y2            2.007610      25.839079
                         42       1    1gx2yz            2.007610      44.754598
                         42       1    1gx2z2            2.007610      25.839079
                         42       1    1gxy3             2.007610      20.014865
                         42       1    1gxy2z            2.007610      44.754598
                         42       1    1gxyz2            2.007610      44.754598
                         42       1    1gxz3             2.007610      20.014865
                         42       1    1gy4              2.007610       7.564908
                         42       1    1gy3z             2.007610      20.014865
                         42       1    1gy2z2            2.007610      25.839079
                         42       1    1gyz3             2.007610      20.014865
                         42       1    1gz4              2.007610       7.564908

                         43       1    1gx4              1.219140       1.919034
                         43       1    1gx3y             1.219140       5.077288
                         43       1    1gx3z             1.219140       5.077288
                         43       1    1gx2y2            1.219140       6.554751
                         43       1    1gx2yz            1.219140      11.353161
                         43       1    1gx2z2            1.219140       6.554751
                         43       1    1gxy3             1.219140       5.077288
                         43       1    1gxy2z            1.219140      11.353161
                         43       1    1gxyz2            1.219140      11.353161
                         43       1    1gxz3             1.219140       5.077288
                         43       1    1gy4              1.219140       1.919034
                         43       1    1gy3z             1.219140       5.077288
                         43       1    1gy2z2            1.219140       6.554751
                         43       1    1gyz3             1.219140       5.077288
                         43       1    1gz4              1.219140       1.919034

                         44       1    1gx4              0.628039       0.309670
                         44       1    1gx3y             0.628039       0.819309
                         44       1    1gx3z             0.628039       0.819309
                         44       1    1gx2y2            0.628039       1.057723
                         44       1    1gx2yz            0.628039       1.832030
                         44       1    1gx2z2            0.628039       1.057723
                         44       1    1gxy3             0.628039       0.819309
                         44       1    1gxy2z            0.628039       1.832030
                         44       1    1gxyz2            0.628039       1.832030
                         44       1    1gxz3             0.628039       0.819309
                         44       1    1gy4              0.628039       0.309670
                         44       1    1gy3z             0.628039       0.819309
                         44       1    1gy2z2            0.628039       1.057723
                         44       1    1gyz3             0.628039       0.819309
                         44       1    1gz4              0.628039       0.309670

                         45       1    1hx5              4.806430     121.974118
                         45       1    1hx4y             4.806430     365.922354
                         45       1    1hx4z             4.806430     365.922354
                         45       1    1hx3y2            4.806430     558.955629
                         45       1    1hx3yz            4.806430     968.139549
                         45       1    1hx3z2            4.806430     558.955629
                         45       1    1hx2y3            4.806430     558.955629
                         45       1    1hx2y2z           4.806430    1249.862783
                         45       1    1hx2yz2           4.806430    1249.862783
                         45       1    1hx2z3            4.806430     558.955629
                         45       1    1hxy4             4.806430     365.922354
                         45       1    1hxy3z            4.806430     968.139549
                         45       1    1hxy2z2           4.806430    1249.862783
                         45       1    1hxyz3            4.806430     968.139549
                         45       1    1hxz4             4.806430     365.922354
                         45       1    1hy5              4.806430     121.974118
                         45       1    1hy4z             4.806430     365.922354
                         45       1    1hy3z2            4.806430     558.955629
                         45       1    1hy2z3            4.806430     558.955629
                         45       1    1hyz4             4.806430     365.922354
                         45       1    1hz5              4.806430     121.974118

                         46       1    1hx5              2.060170       7.771934
                         46       1    1hx4y             2.060170      23.315802
                         46       1    1hx4z             2.060170      23.315802
                         46       1    1hx3y2            2.060170      35.615476
                         46       1    1hx3yz            2.060170      61.687814
                         46       1    1hx3z2            2.060170      35.615476
                         46       1    1hx2y3            2.060170      35.615476
                         46       1    1hx2y2z           2.060170      79.638626
                         46       1    1hx2yz2           2.060170      79.638626
                         46       1    1hx2z3            2.060170      35.615476
                         46       1    1hxy4             2.060170      23.315802
                         46       1    1hxy3z            2.060170      61.687814
                         46       1    1hxy2z2           2.060170      79.638626
                         46       1    1hxyz3            2.060170      61.687814
                         46       1    1hxz4             2.060170      23.315802
                         46       1    1hy5              2.060170       7.771934
                         46       1    1hy4z             2.060170      23.315802
                         46       1    1hy3z2            2.060170      35.615476
                         46       1    1hy2z3            2.060170      35.615476
                         46       1    1hyz4             2.060170      23.315802
                         46       1    1hz5              2.060170       7.771934

                         47       1    1hx5              1.042710       0.849915
                         47       1    1hx4y             1.042710       2.549746
                         47       1    1hx4z             1.042710       2.549746
                         47       1    1hx3y2            1.042710       3.894801
                         47       1    1hx3yz            1.042710       6.745994
                         47       1    1hx3z2            1.042710       3.894801
                         47       1    1hx2y3            1.042710       3.894801
                         47       1    1hx2y2z           1.042710       8.709041
                         47       1    1hx2yz2           1.042710       8.709041
                         47       1    1hx2z3            1.042710       3.894801
                         47       1    1hxy4             1.042710       2.549746
                         47       1    1hxy3z            1.042710       6.745994
                         47       1    1hxy2z2           1.042710       8.709041
                         47       1    1hxyz3            1.042710       6.745994
                         47       1    1hxz4             1.042710       2.549746
                         47       1    1hy5              1.042710       0.849915
                         47       1    1hy4z             1.042710       2.549746
                         47       1    1hy3z2            1.042710       3.894801
                         47       1    1hy2z3            1.042710       3.894801
                         47       1    1hyz4             1.042710       2.549746
                         47       1    1hz5              1.042710       0.849915

                         48       1    1ix6              1.784910       3.928611
                         48       1    1ix5y             1.784910      13.029729
                         48       1    1ix5z             1.784910      13.029729
                         48       1    1ix4y2            1.784910      22.568152
                         48       1    1ix4yz            1.784910      39.089186
                         48       1    1ix4z2            1.784910      22.568152
                         48       1    1ix3y3            1.784910      26.702998
                         48       1    1ix3y2z           1.784910      59.709718
                         48       1    1ix3yz2           1.784910      59.709718
                         48       1    1ix3z3            1.784910      26.702998
                         48       1    1ix2y4            1.784910      22.568152
                         48       1    1ix2y3z           1.784910      59.709718
                         48       1    1ix2y2z2          1.784910      77.084914
                         48       1    1ix2yz3           1.784910      59.709718
                         48       1    1ix2z4            1.784910      22.568152
                         48       1    1ixy5             1.784910      13.029729
                         48       1    1ixy4z            1.784910      39.089186
                         48       1    1ixy3z2           1.784910      59.709718
                         48       1    1ixy2z3           1.784910      59.709718
                         48       1    1ixyz4            1.784910      39.089186
                         48       1    1ixz5             1.784910      13.029729
                         48       1    1iy6              1.784910       3.928611
                         48       1    1iy5z             1.784910      13.029729
                         48       1    1iy4z2            1.784910      22.568152
                         48       1    1iy3z3            1.784910      26.702998
                         48       1    1iy2z4            1.784910      22.568152
                         48       1    1iyz5             1.784910      13.029729
                         48       1    1iz6              1.784910       3.928611

     The atoms of this atomic kind are PAW atoms (GAPW):
       Hard Gaussian function radius:                                      1.512
       Rho0 radius:                                                        1.512
       Maximum GTO radius used for PAW projector construction:            24.566

     GAPW Soft Basis Set                                          def2-QZVP_soft

       Number of orbital shell sets:                                          22
       Number of orbital shells:                                              22
       Number of primitive Cartesian functions:                               15
       Number of Cartesian basis functions:                                   86
       Number of spherical basis functions:                                   70
       Norm type:                                                              2

       Normalised Cartesian orbitals:

                        Set   Shell   Orbital            Exponent    Coefficient

                          1       1    1s         

                          2       1    1s         

                          3       1    1s         

                          4       1    1s         

                          5       1    1s         

                          6       1    1s                2.478280       1.407741

                          7       1    1s                0.912621       0.665469

                          8       1    1s                0.404261       0.361332

                          9       1    1s                0.165629       0.185039

                         10       1    1px               3.302134       1.874788
                         10       1    1py               3.302134       1.874788
                         10       1    1pz               3.302134       1.874788

                         11       1    1px        
                         11       1    1py        
                         11       1    1pz        

                         12       1    1px               1.461866       2.291261
                         12       1    1py               1.461866       2.291261
                         12       1    1pz               1.461866       2.291261

                         13       1    1px               0.646580       0.826453
                         13       1    1py               0.646580       0.826453
                         13       1    1pz               0.646580       0.826453

                         14       1    1px               0.272293       0.280373
                         14       1    1py               0.272293       0.280373
                         14       1    1pz               0.272293       0.280373

                         15       1    1px               0.109052       0.089327
                         15       1    1py               0.109052       0.089327
                         15       1    1pz               0.109052       0.089327

                         16       1    1dx2       
                         16       1    1dxy       
                         16       1    1dxz       
                         16       1    1dy2       
                         16       1    1dyz       
                         16       1    1dz2       

                         17       1    1dx2              1.562000       3.592123
                         17       1    1dxy              1.562000       6.221740
                         17       1    1dxz              1.562000       6.221740
                         17       1    1dy2              1.562000       3.592123
                         17       1    1dyz              1.562000       6.221740
                         17       1    1dz2              1.562000       3.592123

                         18       1    1dx2              0.715000       0.915050
                         18       1    1dxy              0.715000       1.584914
                         18       1    1dxz              0.715000       1.584914
                         18       1    1dy2              0.715000       0.915050
                         18       1    1dyz              0.715000       1.584914
                         18       1    1dz2              0.715000       0.915050

                         19       1    1dx2              0.297000       0.196668
                         19       1    1dxy              0.297000       0.340639
                         19       1    1dxz              0.297000       0.340639
                         19       1    1dy2              0.297000       0.196668
                         19       1    1dyz              0.297000       0.340639
                         19       1    1dz2              0.297000       0.196668

                         20       1    1fx3              0.543000       0.372610
                         20       1    1fx2y             0.543000       0.833180
                         20       1    1fx2z             0.543000       0.833180
                         20       1    1fxy2             0.543000       0.833180
                         20       1    1fxyz             0.543000       1.443111
                         20       1    1fxz2             0.543000       0.833180
                         20       1    1fy3              0.543000       0.372610
                         20       1    1fy2z             0.543000       0.833180
                         20       1    1fyz2             0.543000       0.833180
                         20       1    1fz3              0.543000       0.372610

                         21       1    1fx3              1.325000       2.772938
                         21       1    1fx2y             1.325000       6.200478
                         21       1    1fx2z             1.325000       6.200478
                         21       1    1fxy2             1.325000       6.200478
                         21       1    1fxyz             1.325000      10.739543
                         21       1    1fxz2             1.325000       6.200478
                         21       1    1fy3              1.325000       2.772938
                         21       1    1fy2z             1.325000       6.200478
                         21       1    1fyz2             1.325000       6.200478
                         21       1    1fz3              1.325000       2.772938

                         22       1    1gx4              1.007000       1.134401
                         22       1    1gx3y             1.007000       3.001342
                         22       1    1gx3z             1.007000       3.001342
                         22       1    1gx2y2            1.007000       3.874716
                         22       1    1gx2yz            1.007000       6.711205
                         22       1    1gx2z2            1.007000       3.874716
                         22       1    1gxy3             1.007000       3.001342
                         22       1    1gxy2z            1.007000       6.711205
                         22       1    1gxyz2            1.007000       6.711205
                         22       1    1gxz3             1.007000       3.001342
                         22       1    1gy4              1.007000       1.134401
                         22       1    1gy3z             1.007000       3.001342
                         22       1    1gy2z2            1.007000       3.874716
                         22       1    1gyz3             1.007000       3.001342
                         22       1    1gz4              1.007000       1.134401

     AE Potential information for                                            ALL

       Description:                                       All-electron potential
                                          Krack, Parrinello, PCCP 2, 2105 (2000)

       Gaussian exponent of the core charge distribution:               3.125000
       Electronic configuration (s p d ...):                           6  12   0


 MOLECULE KIND INFORMATION


 All atoms are their own molecule, skipping detailed information


 TOTAL NUMBERS AND MAXIMUM NUMBERS

  Total number of            - Atomic kinds:                                   1
                             - Atoms:                                          1
                             - Shell sets:                                    22
                             - Shells:                                        22
                             - Primitive Cartesian functions:                 41
                             - Cartesian basis functions:                     86
                             - Spherical basis functions:                     70

  Maximum angular momentum of the orbital basis functions:                     4


 MODULE QUICKSTEP:  ATOMIC COORDINATES IN angstrom

  Atom  Kind  Element       X           Y           Z          Z(eff)       Mass

       1     1 Ar  18    8.000000    8.000000    8.000000     18.00      39.9480




 SCF PARAMETERS         Density guess:                                   RESTART
                        --------------------------------------------------------
                        max_scf:                                             200
                        max_scf_history:                                       0
                        max_diis:                                              4
                        --------------------------------------------------------
                        eps_scf:                                        1.00E-06
                        eps_scf_history:                                0.00E+00
                        eps_diis:                                       1.00E-01
                        eps_eigval:                                     1.00E-05
                        --------------------------------------------------------
                        level_shift [a.u.]:                                 0.00
                        --------------------------------------------------------
                        Mixing method:                           DIRECT_P_MIXING
                        --------------------------------------------------------
                        No outer SCF

 PW_GRID| Information for grid number                                          1
 PW_GRID| Grid distributed over                                    24 processors
 PW_GRID| Real space group dimensions                                    24    1
 PW_GRID| the grid is blocked:                                                NO
 PW_GRID| Cutoff [a.u.]                                                    400.0
 PW_GRID| spherical cutoff:                                                   NO
 PW_GRID|   Bounds   1           -144     143                Points:         288
 PW_GRID|   Bounds   2           -144     143                Points:         288
 PW_GRID|   Bounds   3           -144     143                Points:         288
 PW_GRID| Volume element (a.u.^3)  0.1157E-02     Volume (a.u.^3)     27641.1785
 PW_GRID| Grid span                                                    FULLSPACE
 PW_GRID|   Distribution                         Average         Max         Min
 PW_GRID|   G-Vectors                           995328.0      995328      995328
 PW_GRID|   G-Rays                                3456.0        3456        3456
 PW_GRID|   Real Space Points                   995328.0      995328      995328

 PW_GRID| Information for grid number                                          2
 PW_GRID| Grid distributed over                                    24 processors
 PW_GRID| Real space group dimensions                                    24    1
 PW_GRID| the grid is blocked:                                                NO
 PW_GRID| Cutoff [a.u.]                                                    200.0
 PW_GRID| spherical cutoff:                                                   NO
 PW_GRID|   Bounds   1           -100      99                Points:         200
 PW_GRID|   Bounds   2           -100      99                Points:         200
 PW_GRID|   Bounds   3           -100      99                Points:         200
 PW_GRID| Volume element (a.u.^3)  0.3455E-02     Volume (a.u.^3)     27641.1785
 PW_GRID| Grid span                                                    FULLSPACE
 PW_GRID|   Distribution                         Average         Max         Min
 PW_GRID|   G-Vectors                           333333.3      333600      333200
 PW_GRID|   G-Rays                                1666.7        1668        1666
 PW_GRID|   Real Space Points                   333333.3      360000      320000

 PW_GRID| Information for grid number                                          3
 PW_GRID| Grid distributed over                                    24 processors
 PW_GRID| Real space group dimensions                                    24    1
 PW_GRID| the grid is blocked:                                                NO
 PW_GRID| Cutoff [a.u.]                                                     66.7
 PW_GRID| spherical cutoff:                                                   NO
 PW_GRID|   Bounds   1            -60      59                Points:         120
 PW_GRID|   Bounds   2            -60      59                Points:         120
 PW_GRID|   Bounds   3            -60      59                Points:         120
 PW_GRID| Volume element (a.u.^3)  0.1600E-01     Volume (a.u.^3)     27641.1785
 PW_GRID| Grid span                                                    FULLSPACE
 PW_GRID|   Distribution                         Average         Max         Min
 PW_GRID|   G-Vectors                            72000.0       72360       71760
 PW_GRID|   G-Rays                                 600.0         603         598
 PW_GRID|   Real Space Points                    72000.0       72000       72000

 PW_GRID| Information for grid number                                          4
 PW_GRID| Grid distributed over                                    24 processors
 PW_GRID| Real space group dimensions                                    24    1
 PW_GRID| the grid is blocked:                                                NO
 PW_GRID| Cutoff [a.u.]                                                     22.2
 PW_GRID| spherical cutoff:                                                   NO
 PW_GRID|   Bounds   1            -36      35                Points:          72
 PW_GRID|   Bounds   2            -36      35                Points:          72
 PW_GRID|   Bounds   3            -36      35                Points:          72
 PW_GRID| Volume element (a.u.^3)  0.7406E-01     Volume (a.u.^3)     27641.1785
 PW_GRID| Grid span                                                    FULLSPACE
 PW_GRID|   Distribution                         Average         Max         Min
 PW_GRID|   G-Vectors                            15552.0       15768       15408
 PW_GRID|   G-Rays                                 216.0         219         214
 PW_GRID|   Real Space Points                    15552.0       15552       15552

 PW_GRID| Information for grid number                                          5
 PW_GRID| Grid distributed over                                    24 processors
 PW_GRID| Real space group dimensions                                    24    1
 PW_GRID| the grid is blocked:                                                NO
 PW_GRID| Cutoff [a.u.]                                                      7.4
 PW_GRID| spherical cutoff:                                                   NO
 PW_GRID|   Bounds   1            -20      19                Points:          40
 PW_GRID|   Bounds   2            -20      19                Points:          40
 PW_GRID|   Bounds   3            -20      19                Points:          40
 PW_GRID| Volume element (a.u.^3)  0.4319         Volume (a.u.^3)     27641.1785
 PW_GRID| Grid span                                                    FULLSPACE
 PW_GRID|   Distribution                         Average         Max         Min
 PW_GRID|   G-Vectors                             2666.7        2720        2640
 PW_GRID|   G-Rays                                  66.7          68          66
 PW_GRID|   Real Space Points                     2666.7        3200        1600

 POISSON| Solver                                          Martyna-Tuckerman (MT)
 POISSON| MT| Alpha                                                        7.000
 POISSON| MT| Relative cutoff                                                2.0
 POISSON| Periodicity                                                       NONE

 RS_GRID| Information for grid number                                          2
 RS_GRID|   Bounds   1           -100      99                Points:         200
 RS_GRID|   Bounds   2           -100      99                Points:         200
 RS_GRID|   Bounds   3           -100      99                Points:         200
 RS_GRID| Real space distribution over                                  4 groups
 RS_GRID| Real space distribution along direction                              2
 RS_GRID| Border size                                                         23
 RS_GRID| Real space distribution over                                  6 groups
 RS_GRID| Real space distribution along direction                              3
 RS_GRID| Border size                                                         23
 RS_GRID|   Distribution                         Average         Max         Min
 RS_GRID|   Planes                                  96.0          96          96
 RS_GRID|   Distribution                         Average         Max         Min
 RS_GRID|   Planes                                  79.3          80          79

 RS_GRID| Information for grid number                                          3
 RS_GRID|   Bounds   1            -60      59                Points:         120
 RS_GRID|   Bounds   2            -60      59                Points:         120
 RS_GRID|   Bounds   3            -60      59                Points:         120
 RS_GRID| Real space distribution over                                  4 groups
 RS_GRID| Real space distribution along direction                              2
 RS_GRID| Border size                                                         25
 RS_GRID| Real space distribution over                                  6 groups
 RS_GRID| Real space distribution along direction                              3
 RS_GRID| Border size                                                         25
 RS_GRID|   Distribution                         Average         Max         Min
 RS_GRID|   Planes                                  80.0          80          80
 RS_GRID|   Distribution                         Average         Max         Min
 RS_GRID|   Planes                                  70.0          70          70

 RS_GRID| Information for grid number                                          4
 RS_GRID|   Bounds   1            -36      35                Points:          72
 RS_GRID|   Bounds   2            -36      35                Points:          72
 RS_GRID|   Bounds   3            -36      35                Points:          72
 RS_GRID| Real space fully replicated
 RS_GRID| Group size                                                           1

 RS_GRID| Information for grid number                                          5
 RS_GRID|   Bounds   1            -20      19                Points:          40
 RS_GRID|   Bounds   2            -20      19                Points:          40
 RS_GRID|   Bounds   3            -20      19                Points:          40
 RS_GRID| Real space fully replicated
 RS_GRID| Group size                                                           1
 
 RI-RPA| using GPW style
 

  HFX_INFO| Replica ID:                                                        1
  HFX_INFO| EPS_SCHWARZ:                                                 2.0E-17
  HFX_INFO| EPS_SCHWARZ_FORCES                                           1.0E-06
  HFX_INFO| EPS_STORAGE_SCALING:                                         1.0E+00
  HFX_INFO| NBINS:                                                            64
  HFX_INFO| BLOCK_SIZE:                                                        1
  HFX_INFO| FRACTION:                                               1.0000000000
  HFX_INFO| Interaction Potential:                                       COULOMB
  HFX_INFO| Number of periodic shells considered:                           NONE
  HFX_INFO| Number of periodic cells considered:                            NONE


 Number of electrons:                                                         18
 Number of occupied orbitals:                                                  9
 Number of molecular orbitals:                                                 9

 Number of orbital functions:                                                 70
 Number of independent orbital functions:                                     70

 Extrapolation method: initial_guess


 SCF WAVEFUNCTION OPTIMIZATION

  Step     Update method      Time    Convergence         Total energy    Change
  ------------------------------------------------------------------------------
     1 P_Mix/Diag. 0.40E+00    2.9     4.4731E-10      -527.3444832063 -5.27E+02

  *** SCF run converged in     1 steps ***


  Electronic density on regular grids:         -9.0939848114        8.9060151886
  Core density on regular grids:               18.0000000000       -0.0000000000
  Hard and soft densities (Lebedev):          -17.9999998353       -9.0939848119
  Total Rho_soft + Rho1_hard - Rho1_soft      -17.9999998349
  Total charge density (r-space):               0.0000001651
  Total Rho_soft + Rho0_soft (g-space):        -0.0000000824

  Overlap energy of the core charge distribution:               0.00000000000000
  Self energy of the core charge distribution:               -228.49678133684131
  Core Hamiltonian energy:                                   -305.50789097236907
  Hartree energy:                                              39.11742340025406
  Exchange-correlation energy:                                 -4.53578149988991

  GAPW| Exc from hard and soft atomic rho1:                   -26.14163759514102
  GAPW| local Eh = 1 center integrals:                         -1.77981520227573

  Total energy:                                              -527.34448320626302

 !-----------------------------------------------------------------------------!
                     Mulliken Population Analysis

 #  Atom  Element  Kind  Atomic population                           Net charge
       1     Ar       1         18.000000                             -0.000000
 # Total charge                             18.000000                 -0.000000

 !-----------------------------------------------------------------------------!

 !-----------------------------------------------------------------------------!
                           Hirshfeld Charges

  #Atom  Element  Kind  Ref Charge     Population                    Net charge
      1       Ar     1      18.000         18.000                         0.000

  Total Charge                                                            0.000
 !-----------------------------------------------------------------------------!


 RI-RPA section
 --------------

  Used number of processes per group:                                          1
  Maximum allowed memory usage per MPI processes:                     200.00 MiB

  HFX_MEM_INFO| Est. max. program size before HFX [MiB]:                     415
 POWELL| Error in trust region
 POWELL| Error in trust region
 POWELL| Error in trust region
 POWELL| Error in trust region
 POWELL| Error in trust region
 POWELL| Error in trust region
 POWELL| Error in trust region
 POWELL| Error in trust region
 POWELL| Error in trust region
 POWELL| Error in trust region
 POWELL| Error in trust region
 POWELL| Error in trust region
 POWELL| Error in trust region
 POWELL| Error in trust region
 POWELL| Error in trust region
 POWELL| Error in trust region
 POWELL| Error in trust region
 POWELL| Error in trust region
 POWELL| Error in trust region
 POWELL| Error in trust region
 POWELL| Error in trust region
 POWELL| Error in trust region
 POWELL| Error in trust region
 POWELL| Error in trust region
 POWELL| Error in trust region
 POWELL| Error in trust region
 POWELL| Error in trust region
 POWELL| Error in trust region
 POWELL| Error in trust region
 POWELL| Error in trust region
 POWELL| Error in trust region
 POWELL| Error in trust region
 POWELL| Error in trust region
 POWELL| Error in trust region
 POWELL| Error in trust region
 POWELL| Error in trust region
 POWELL| Error in trust region
 POWELL| Error in trust region
 POWELL| Error in trust region
 POWELL| Error in trust region
 POWELL| Error in trust region
 POWELL| Error in trust region
 POWELL| Error in trust region
 POWELL| Error in trust region
 POWELL| Error in trust region
 POWELL| Error in trust region
 POWELL| Error in trust region
 POWELL| Error in trust region
  HFX_MEM_INFO| Number of cart. primitive ERI's calculated:            214358881
  HFX_MEM_INFO| Number of sph. ERI's calculated:                        24010000
  HFX_MEM_INFO| Number of sph. ERI's stored in-core:                    24010000
  HFX_MEM_INFO| Number of sph. ERI's stored on disk:                           0
  HFX_MEM_INFO| Number of sph. ERI's calculated on the fly:                    0
  HFX_MEM_INFO| Total memory consumption ERI's RAM [MiB]:                    132
  HFX_MEM_INFO| Whereof max-vals [MiB]:                                        1
  HFX_MEM_INFO| Total compression factor ERI's RAM:                         1.40
  HFX_MEM_INFO| Total memory consumption ERI's disk [MiB]:                     0
  HFX_MEM_INFO| Total compression factor ERI's disk:                        0.00
  HFX_MEM_INFO| Size of density/Fock matrix [MiB]:                             0
  HFX_MEM_INFO| Size of buffers [MiB]:                                         0
  HFX_MEM_INFO| Est. max. program size after HFX  [MiB]:                     536

  GPW_INFO| Density cutoff [a.u.]:                                         150.0
  GPW_INFO| Relative density cutoff [a.u.]:                                 25.0
  RI_INFO| Cholesky decomposition group size:                                 24
  RI_INFO| Number of groups for auxiliary basis functions                     24
  RI_INFO| Occupied  basis set size:                                           9
  RI_INFO| Virtual   basis set size:                                          61
  RI_INFO| Auxiliary basis set size:                                         230
  RI_INFO| Total memory for (ia|K) integrals:                           0.96 MiB
  RI_INFO| Group size for frequency integration:                              24
  INTEG_INFO| MINIMAX quadrature
  INTEG_INFO| Number of integration points:                                   14
  INTEG_INFO| Number of integration points per RPA group:                     14
  MATRIX_INFO| Number row processes:                                           6
  MATRIX_INFO| Number column processes:                                        4
  MATRIX_INFO| Row block size:                                                45
  MATRIX_INFO| Column block size:                                             28
 SIZE(fm_matrix_L_RI_metric, 1) =           1
[...]
 
 n_level_gw =           6
 AFTER evaluate_pade_function/get_z_and_m_value_pade
 energy_val = -0.79072521575239174     
 nparam_pade =           8
 Eigenval_scf(n_level_gw_ref) =  -229.87168456319907     
 nparam_pade =           8
 level_energ_GW =  -9.7070096039332068     
 
 coeff_pade = ( -4.1302434568955507E-002, -5.2876163088227441E-014) ( -1.2761912233008674     ,  6.2417023810098289E-002) (  1.2232107311227269     ,-0.11862263686978219     ) ( 0.38173938478430258     ,  1.7683201531314949E-002) (-0.29409811239146350     ,-0.21360374561787632     ) (-0.36983364587560075     , 0.20379537635081058     ) ( -1.2475277561975813     , -3.3875476084631635     ) (  2.3423688796875752     , -1.9506746732148830     )
 sigma_c_pade = ( -1.7819855900799821     , -4.2547152624332393E-003)
 z_value(n_level_gw) =  0.93369341248707705     
 omega_points_pade = (  0.0000000000000000     ,  9.9999999999999998E-013) (  0.0000000000000000     ,  3.9782473475931619E-002) (  0.0000000000000000     ,  8.2842712474619024E-002) (  0.0000000000000000     , 0.13363572758385980     ) (  0.0000000000000000     , 0.20000000000000004     ) (  0.0000000000000000     , 0.29932115253309782     ) (  0.0000000000000000     , 0.48284271247461907     ) (  0.0000000000000000     , 0.99727829908815668     )
 omega_points_pade = (  0.0000000000000000     ,  9.9999999999999998E-013) (  0.0000000000000000     ,  3.9782473475931619E-002) (  0.0000000000000000     ,  8.2842712474619024E-002) (  0.0000000000000000     , 0.13363572758385980     ) (  0.0000000000000000     , 0.20000000000000004     ) (  0.0000000000000000     , 0.29932115253309782     ) (  0.0000000000000000     , 0.48284271247461907     ) (  0.0000000000000000     , 0.99727829908815668     )
 m_value(n_level_gw) =  -7.1015374668117429E-002
 level_energ_GW =  0.48712084056603605     
 
 
 coeff_pade = ( -1.4036432594959816E-002, -1.6218072508572604E-014) ( -1.1527020600608808     ,  4.6644082229555836E-002) (  1.0127244965504290     , -9.7072318223556900E-002) ( 0.44560729813547501     ,  2.0720022904777948E-002) (-0.25821539369646807     ,-0.10301918994722338     ) ( -1.3199203263858759     ,-0.42856543647123246     ) (  2.0603567344131215     ,-0.21732847683822140     ) ( 0.13405772317232548     , -3.8387452767651230E-002)
 sigma_c_pade = (-0.51777927459937267     , -1.2656382022126854E-004)
 z_value(n_level_gw) =  0.98067901832391857     
 m_value(n_level_gw) =  -1.9701636636524501E-002
 coeff_pade = ( -4.9061040695171983E-002, -3.3028262948923764E-014) (-0.67273330580951551     ,  1.0680374763792399E-002) ( 0.39833334805701992     , -4.1392008629654503E-002) ( 0.70667349262552170     ,  7.7864151259548028E-002) (-0.53201845213971422     ,-0.11685038910020498     ) (-0.89652144873116979     ,-0.68473212373465153     ) (  1.9486866661989857     , -9.1139800670973853E-002) (  9.9913420121245003E-002, -9.2957801547029678E-002)
 sigma_c_pade = ( -4.3034685354442663     , -1.9720352763089086     )
 z_value(n_level_gw) =  0.96087940896510293     
 m_value(n_level_gw) =  -4.0713320183467377E-002
 level_energ_GW =   1.2782705243329024     
 omega_points_pade = ( -0.0000000000000000     , -9.9999999999999998E-013) ( -0.0000000000000000     , -3.9782473475931619E-002) ( -0.0000000000000000     , -8.2842712474619024E-002) ( -0.0000000000000000     ,-0.13363572758385980     ) ( -0.0000000000000000     ,-0.20000000000000004     ) ( -0.0000000000000000     ,-0.29932115253309782     ) ( -0.0000000000000000     ,-0.48284271247461907     ) ( -0.0000000000000000     ,-0.99727829908815668     )
 n_level_gw =          16
 AFTER get_sigma_c_newton_pade
 vec_gw_energ(n_level_gw) =  -2.1537620224664833     
 Eigenval_scf(n_level_gw_ref) =   8.6358971383975458     
 nparam_pade =           8
 level_energ_GW =  0.48712084056603605     
 
 coeff_pade = (  5.1786419639827920E-002,  1.0868296790185480E-013) (  2.0878997810860525     ,-0.14369608076545010     ) ( -1.7200523258405556     , 0.15121933127994902     ) (-0.15600077411723695     , -9.3730908560265593E-003) (  9.2790933916678406E-002, -5.5762841090155293E-002) ( -9.3143503197956292     ,  17.649522033689419     ) (  4.8372528325195487     , -14.620927403465089     ) (-0.20886784781415127     ,  8.6790489275771501E-002)
 sigma_c_pade = (  5.5481940739258677     , 0.23032571381934516     )
 z_value(n_level_gw) =  0.72819272038754679     
 level_energ_GW =  0.29915647805101453     
 
 
 n_level_gw =          12
 AFTER get_sigma_c_newton_pade
 vec_gw_energ(n_level_gw) = -0.57953969883608736     
 
 
 n_level_gw =          19
 AFTER get_sigma_c_newton_pade
 vec_gw_energ(n_level_gw) =  -3.5770608898372505     
 m_value(n_level_gw) = -0.37326283551392325     
 level_energ_GW =  -1.0202695534526376     
 
 Eigenval_scf(n_level_gw_ref) =   5.2040700122206403     
 nparam_pade =           8
 level_energ_GW =  0.29915647805101453     
 
 Eigenval_scf(n_level_gw_ref) =   31.493638086874608     
 nparam_pade =           8
 level_energ_GW =   1.2782705243329024     
 
 
 n_level_gw =           6
 AFTER get_sigma_c_newton_pade
 vec_gw_energ(n_level_gw) =   7.1236732820081636     
 Eigenval_scf(n_level_gw_ref) =  -24.050553025886661     
 nparam_pade =           8
 level_energ_GW =  -1.0202695534526376     
 
  
  GW quasiparticle energies
  -------------------------
   
  The GW quasiparticle energies are calculated according to: 
  E_GW = E_SCF + Z * ( Sigc(E_SCF) + Sigx - vxc )
   
  The energy unit of the following table is eV.  Sigc_fit is a very conservative
  estimate of the statistical error of the fitting.
   
            MO      E_SCF       Sigc   Sigc_fit   Sigx-vxc          Z       E_GW
     1 ( occ )  -3106.884      3.463      0.000   -120.764      1.000  -3224.186
     2 ( occ )   -294.809    -12.426      0.000    -40.203      1.000   -347.437
     3 ( occ )   -229.875     -5.684      0.000    -30.479      1.000   -266.038
     4 ( occ )   -229.875     -5.684      0.000    -30.479      1.000   -266.038
     5 ( occ )   -229.875     -5.684      0.000    -30.479      1.000   -266.038
     6 ( occ )    -24.051      7.124      0.000    -10.646      1.000    -27.573
     7 ( occ )    -10.272      0.874      0.000     -5.745      1.000    -15.143
     8 ( occ )    -10.272      0.874      0.000     -5.745      1.000    -15.143
     9 ( occ )    -10.272      0.874      0.000     -5.745      1.000    -15.143
    10 ( vir )      5.204     -0.580      0.000      3.512      1.000      8.137
    11 ( vir )      5.204     -0.580      0.000      3.512      1.000      8.137
    12 ( vir )      5.204     -0.580      0.000      3.512      1.000      8.137
    13 ( vir )      6.977     -1.606      0.000      5.026      1.000     10.397
    14 ( vir )      8.636     -2.154      0.000      6.729      1.000     13.211
    15 ( vir )      8.636     -2.154      0.000      6.729      1.000     13.211
    16 ( vir )      8.636     -2.154      0.000      6.729      1.000     13.211
    17 ( vir )      8.636     -2.154      0.000      6.729      1.000     13.211
    18 ( vir )      8.636     -2.154      0.000      6.729      1.000     13.211
    19 ( vir )     31.494     -3.577      0.000      7.727      1.000     35.644
   
  GW HOMO-LUMO gap (eV)                                                    23.28
  

  Total RI-RPA Time=                                                  293.178371
  RI-RPA energy  =                                             -0.68173403699822

  Total EXX Time=                                                      16.271125
  EXX energy  =                                               -30.14026517417176

 ENERGY| Total FORCE_EVAL ( QS ) energy (a.u.):             -527.489063324395374


 -------------------------------------------------------------------------------
 -                                                                             -
 -                                DBCSR STATISTICS                             -
 -                                                                             -
 -------------------------------------------------------------------------------
 COUNTER                                    TOTAL       BLAS       SMM       ACC
 flops    70 x     9 x    70                88200     100.0%      0.0%      0.0%
 flops    70 x    70 x     9               176400     100.0%      0.0%      0.0%
 flops    70 x    70 x    70              1372000     100.0%      0.0%      0.0%
 flops   230 x   230 x   230            340676000     100.0%      0.0%      0.0%
 flops   230 x   230 x   187           1107937600     100.0%      0.0%      0.0%
 flops   230 x   230 x   198           1173110400     100.0%      0.0%      0.0%
 flops   230 x    70 x    70           1199128000     100.0%      0.0%      0.0%
 flops    70 x   630 x    70           1790460000     100.0%      0.0%      0.0%
 flops   230 x    70 x   230           1969996000     100.0%      0.0%      0.0%
 flops   230 x   230 x   204           2417318400     100.0%      0.0%      0.0%
 flops   230 x   230 x   216           2559513600     100.0%      0.0%      0.0%
 flops    70 x   700 x    70           2785160000     100.0%      0.0%      0.0%
 flops inhomo. stacks                           0       0.0%      0.0%      0.0%
 flops total                        15.344937E+09     100.0%      0.0%      0.0%
 flops max/rank                      4.030316E+09     100.0%      0.0%      0.0%
 matmuls inhomo. stacks                         0       0.0%      0.0%      0.0%
 matmuls total                               1849     100.0%      0.0%      0.0%
 number of processed stacks                  1849     100.0%      0.0%      0.0%
 average stack size                                     1.0       0.0       0.0
 marketing flops                    15.343778E+09
 -------------------------------------------------------------------------------
 # multiplications                            860
 max memory usage/rank             576.942080E+06
 # max total images/rank                        3
 # max 3D layers                                1
 # MPI messages exchanged                  372552
 MPI messages size (bytes):
  total size                         1.119127E+09
  min size                           0.000000E+00
  max size                         423.200000E+03
  average size                       3.003948E+03
 MPI breakdown and total messages size (bytes):
             size <=      128              366016                        0
       128 < size <=     8192                  19                    95760
      8192 < size <=    32768                   0                        0
     32768 < size <=   131072                5075                508776800
    131072 < size <=  4194304                1442                610254400
   4194304 < size <= 16777216                   0                        0
  16777216 < size                               0                        0
 -------------------------------------------------------------------------------

 *** WARNING in dbcsr_mm.F:278 :: Using a non-square number of MPI ranks ***
 *** might lead to poor performance. Used ranks: 24 Suggested: 25 49     ***

 -------------------------------------------------------------------------------
 -                                                                             -
 -                      DBCSR MESSAGE PASSING PERFORMANCE                      -
 -                                                                             -
 -------------------------------------------------------------------------------

 ROUTINE             CALLS      AVE VOLUME [Bytes]
 MP_Group               26
 MP_Bcast               13                     12.
 MP_Allreduce         4860                      8.
 MP_Alltoall          2512                  19592.
 MP_Wait             46784
 MP_ISend            34486                   7256.
 MP_IRecv            34486                     56.
 MP_Memory           65916
 -------------------------------------------------------------------------------


 MEMORY| Estimated peak process memory [MiB]                                 551

 -------------------------------------------------------------------------------
 ----                             MULTIGRID INFO                            ----
 -------------------------------------------------------------------------------
 count for grid        1:         150612          cutoff [a.u.]          200.00
 count for grid        2:          13948          cutoff [a.u.]           66.67
 count for grid        3:           4838          cutoff [a.u.]           22.22
 count for grid        4:            771          cutoff [a.u.]            7.41
 total gridlevel count  :         170169

 -------------------------------------------------------------------------------
 -                                                                             -
 -                         MESSAGE PASSING PERFORMANCE                         -
 -                                                                             -
 -------------------------------------------------------------------------------

 ROUTINE             CALLS      AVE VOLUME [Bytes]
 MP_Group                5
 MP_Bcast              120                2474673.
 MP_Allreduce          335                  30918.
 MP_Sync                72
 MP_Alltoall           123                3774779.
 MP_ISendRecv          276                  56709.
 MP_Wait               940
 MP_comm_split          10
 MP_ISend             3188                  58793.
 MP_IRecv             2552                 120284.
 MP_Recv                 4                   1120.
 -------------------------------------------------------------------------------


 -------------------------------------------------------------------------------
 -                                                                             -
 -                           R E F E R E N C E S                               -
 -                                                                             -
 -------------------------------------------------------------------------------
 
 CP2K version 7.0 (Development Version), the CP2K developers group (2018).
 CP2K is freely available from https://www.cp2k.org/ .

 Schuett, Ole; Messmer, Peter; Hutter, Juerg; VandeVondele, Joost. 
 Electronic Structure Calculations on Graphics Processing Units, John Wiley & Sons, Ltd, 173-190 (2016). 
 GPU-Accelerated Sparse Matrix-Matrix Multiplication for Linear Scaling Density Functional Theory.
 https://dx.doi.org/10.1002/9781118670712.ch8


 Del Ben, M; Schuett, O; Wentz, T; Messmer, P; Hutter, J;
 VandeVondele, J. 
 COMPUTER PHYSICS COMMUNICATIONS, 187, 120-129 (2015). 
 Enabling simulation at the fifth rung of DFT: Large scale RPA
 calculations with excellent time to solution.
 https://dx.doi.org/10.1016/j.cpc.2014.10.021


 Borstnik, U; VandeVondele, J; Weber, V; Hutter, J. 
 PARALLEL COMPUTING, 40 (5-6), 47-58 (2014). 
 Sparse matrix multiplication: The distributed block-compressed sparse
 row library.
 https://dx.doi.org/10.1016/j.parco.2014.03.012


 Hutter, J; Iannuzzi, M; Schiffmann, F; VandeVondele, J. 
 WILEY INTERDISCIPLINARY REVIEWS-COMPUTATIONAL MOLECULAR SCIENCE, 4 (1), 15-25 (2014). 
 CP2K: atomistic simulations of condensed matter systems.
 https://dx.doi.org/10.1002/wcms.1159


 Del Ben, M; Hutter, J; VandeVondele, J. 
 JOURNAL OF CHEMICAL THEORY AND COMPUTATION, 9 (6), 2654-2671 (2013). 
 Electron Correlation in the Condensed Phase from a Resolution of
 Identity Approach Based on the Gaussian and Plane Waves Scheme.
 https://dx.doi.org/10.1021/ct4002202


 Del Ben, M; Hutter, J; VandeVondele, J. 
 JOURNAL OF CHEMICAL THEORY AND COMPUTATION, 8 (11), 4177-4188 (2012). 
 Second-Order Moller-Plesset Perturbation Theory in the Condensed Phase:
 An Efficient and Massively Parallel Gaussian and Plane Waves Approach.
 https://dx.doi.org/10.1021/ct300531w


 Guidon, M; Hutter, J; VandeVondele, J. 
 JOURNAL OF CHEMICAL THEORY AND COMPUTATION, 5 (11), 3010-3021 (2009). 
 Robust Periodic Hartree-Fock Exchange for Large-Scale Simulations Using
 Gaussian Basis Sets.
 https://dx.doi.org/10.1021/ct900494g


 Guidon, M; Schiffmann, F; Hutter, J; VandeVondele, J. 
 JOURNAL OF CHEMICAL PHYSICS, 128 (21), 214104 (2008). 
 Ab initio molecular dynamics using hybrid density functionals.
 https://dx.doi.org/10.1063/1.2931945


 Frigo, M; Johnson, SG. 
 PROCEEDINGS OF THE IEEE, 93 (2), 216-231 (2005). 
 The design and implementation of FFTW3.
 https://dx.doi.org/10.1109/JPROC.2004.840301


 Lippert, G; Hutter, J; Parrinello, M. 
 THEORETICAL CHEMISTRY ACCOUNTS, 103 (2), 124-140 (1999). 
 The Gaussian and augmented-plane-wave density functional method for ab
 initio molecular dynamics simulations.
 https://dx.doi.org/10.1007/s002140050523


 Krack, M; Parrinello, M. 
 PHYSICAL CHEMISTRY CHEMICAL PHYSICS, 2 (10), 2105-2112 (2000). 
 All-electron ab-initio molecular dynamics.
 https://dx.doi.org/10.1039/b001167n


 Martyna, GJ; Tuckerman, ME. 
 JOURNAL OF CHEMICAL PHYSICS, 110 (6), 2810-2821 (1999). 
 A reciprocal space based method for treating long range interactions in
 ab initio and force-field-based calculations in clusters.
 https://dx.doi.org/10.1063/1.477923


 Perdew, JP; Burke, K; Ernzerhof, M. 
 PHYSICAL REVIEW LETTERS, 77 (18), 3865-3868 (1996). 
 Generalized gradient approximation made simple.
 https://dx.doi.org/10.1103/PhysRevLett.77.3865


 -------------------------------------------------------------------------------
 -                                                                             -
 -                                T I M I N G                                  -
 -                                                                             -
 -------------------------------------------------------------------------------
 SUBROUTINE                       CALLS  ASD         SELF TIME        TOTAL TIME
                                MAXIMUM       AVERAGE  MAXIMUM  AVERAGE  MAXIMUM
 CP2K                                 1  1.0    0.016    0.021  315.226  315.227
 qs_energies                          1  2.0    0.000    0.000  313.839  313.839
 mp2_main                             1  3.0    0.000    0.001  309.457  309.457
 mp2_gpw_main                         1  4.0    0.000    0.000  293.178  293.179
 rpa_ri_compute_en                    1  5.0    0.000    0.000  291.380  291.380
 rpa_num_int                          1  6.0    0.001    0.001  291.378  291.378
 get_l_sq_wghts_sin_tf_t_to_w         2  7.0  140.794  142.702  142.774  142.776
 get_l_sq_wghts_cos_tf_t_to_w         2  7.0  140.591  142.459  142.460  142.462
 compute_vec_Sigma_x_minus_vxc_       1  4.0    0.000    0.000   16.271   16.271
 integrate_four_center                1  5.0    0.003    0.004   15.134   15.134
 mp_sum_dm                           14  7.8    4.725   12.875    4.725   12.875
 mp_sync                             72  8.7    6.912    7.246    6.912    7.246
 integrate_four_center_main           1  6.0    0.000    0.000    0.299    7.177
 integrate_four_center_bin          128  7.0    0.299    7.177    0.299    7.177
 -------------------------------------------------------------------------------

 The number of warnings for this run is : 1
 
 -------------------------------------------------------------------------------
  **** **** ******  **  PROGRAM ENDED AT                 2019-06-07 03:03:57.353
 ***** ** ***  *** **   PROGRAM RAN ON                                    tcopt4
 **    ****   ******    PROGRAM RAN BY                                   wilhelm
 ***** **    ** ** **   PROGRAM PROCESS ID                                 51202
  **** **  *******  **  PROGRAM STOPPED IN /data/wilhelm/2_job_test/11_GW100/3_c
                                           alcs/03_Ar
