 DBCSR| CPU Multiplication driver                                           BLAS
 DBCSR| Multrec recursion limit                                              512
 DBCSR| Multiplication stack size                                           1000
 DBCSR| Maximum elements for images                                    UNLIMITED
 DBCSR| Multiplicative factor virtual images                                   1
 DBCSR| Use multiplication densification                                       T
 DBCSR| Multiplication size stacks                                             3
 DBCSR| Number of 3D layers                                               SINGLE
 DBCSR| Use MPI memory allocation                                              T
 DBCSR| Use RMA algorithm                                                      F
 DBCSR| Use Communication thread                                               T
 DBCSR| Communication thread load                                             87


  **** **** ******  **  PROGRAM STARTED AT               2019-06-07 03:25:52.539
 ***** ** ***  *** **   PROGRAM STARTED ON                                tcopt4
 **    ****   ******    PROGRAM STARTED BY                               wilhelm
 ***** **    ** ** **   PROGRAM PROCESS ID                                 52755
  **** **  *******  **  PROGRAM STARTED IN /data/wilhelm/2_job_test/11_GW100/3_c
                                           alcs/14_P2

 CP2K| version string:                    CP2K version 7.0 (Development Version)
 CP2K| source code revision number:                                  git:bc2813a
 CP2K| cp2kflags: libint fftw3 libxc pexsi elpa=201705 parallel mpi3 scalapack q
 CP2K|            uip libderiv_max_am1=5 libint_max_am=6
 CP2K| is freely available from                            https://www.cp2k.org/
 CP2K| Program compiled at                         Sun Jun  2 14:38:23 CEST 2019
 CP2K| Program compiled on                                                tcopt4
 CP2K| Program compiled for                            local_valgrind_March_2019
 CP2K| Data directory path              /data/wilhelm/1_git_repository/cp2k/data
 CP2K| Input file name                                                    GW.inp

 GLOBAL| Force Environment number                                              1
 GLOBAL| Basis set file name                              BASIS_def2_QZVP_RI_ALL
 GLOBAL| Potential file name                                           POTENTIAL
 GLOBAL| MM Potential file name                                     MM_POTENTIAL
 GLOBAL| Coordinate file name                                          14_P2.xyz
 GLOBAL| Method name                                                        CP2K
 GLOBAL| Project name                                                   ALL_ELEC
 GLOBAL| Preferred FFT library                                             FFTW3
 GLOBAL| Preferred diagonalization lib.                                       SL
 GLOBAL| Run type                                                         ENERGY
 GLOBAL| All-to-all communication in single precision                          F
 GLOBAL| FFTs using library dependent lengths                                  F
 GLOBAL| Global print level                                               MEDIUM
 GLOBAL| MPI I/O enabled                                                       T
 GLOBAL| Total number of message passing processes                            24
 GLOBAL| Number of threads for this process                                    1
 GLOBAL| This output is from process                                           0
 GLOBAL| CPU model name :  Intel(R) Xeon(R) CPU E5-2697 v3 @ 2.60GHz

 MEMORY| system memory details [Kb]
 MEMORY|                        rank 0           min           max       average
 MEMORY| MemTotal            396954008     396954008     396954008     396954008
 MEMORY| MemFree             348542392     348542060     348542392     348542156
 MEMORY| Buffers                274556        274556        274556        274556
 MEMORY| Cached               34607828      34607460      34607828      34607567
 MEMORY| Slab                  1200720       1200716       1200720       1200717
 MEMORY| SReclaimable          1058432       1058420       1058432       1058423
 MEMORY| MemLikelyFree       384483208     384482496     384483208     384482703


 *** Fundamental physical constants (SI units) ***

 *** Literature: B. J. Mohr and B. N. Taylor,
 ***             CODATA recommended values of the fundamental physical
 ***             constants: 2006, Web Version 5.1
 ***             http://physics.nist.gov/constants

 Speed of light in vacuum [m/s]                             2.99792458000000E+08
 Magnetic constant or permeability of vacuum [N/A**2]       1.25663706143592E-06
 Electric constant or permittivity of vacuum [F/m]          8.85418781762039E-12
 Planck constant (h) [J*s]                                  6.62606896000000E-34
 Planck constant (h-bar) [J*s]                              1.05457162825177E-34
 Elementary charge [C]                                      1.60217648700000E-19
 Electron mass [kg]                                         9.10938215000000E-31
 Electron g factor [ ]                                     -2.00231930436220E+00
 Proton mass [kg]                                           1.67262163700000E-27
 Fine-structure constant                                    7.29735253760000E-03
 Rydberg constant [1/m]                                     1.09737315685270E+07
 Avogadro constant [1/mol]                                  6.02214179000000E+23
 Boltzmann constant [J/K]                                   1.38065040000000E-23
 Atomic mass unit [kg]                                      1.66053878200000E-27
 Bohr radius [m]                                            5.29177208590000E-11

 *** Conversion factors ***

 [u] -> [a.u.]                                              1.82288848426455E+03
 [Angstrom] -> [Bohr] = [a.u.]                              1.88972613288564E+00
 [a.u.] = [Bohr] -> [Angstrom]                              5.29177208590000E-01
 [a.u.] -> [s]                                              2.41888432650478E-17
 [a.u.] -> [fs]                                             2.41888432650478E-02
 [a.u.] -> [J]                                              4.35974393937059E-18
 [a.u.] -> [N]                                              8.23872205491840E-08
 [a.u.] -> [K]                                              3.15774647902944E+05
 [a.u.] -> [kJ/mol]                                         2.62549961709828E+03
 [a.u.] -> [kcal/mol]                                       6.27509468713739E+02
 [a.u.] -> [Pa]                                             2.94210107994716E+13
 [a.u.] -> [bar]                                            2.94210107994716E+08
 [a.u.] -> [atm]                                            2.90362800883016E+08
 [a.u.] -> [eV]                                             2.72113838565563E+01
 [a.u.] -> [Hz]                                             6.57968392072181E+15
 [a.u.] -> [1/cm] (wave numbers)                            2.19474631370540E+05
 [a.u./Bohr**2] -> [1/cm]                                   5.14048714338585E+03
 

 CELL_TOP| Volume [angstrom^3]:                                         4096.000
 CELL_TOP| Vector a [angstrom    16.000     0.000     0.000    |a| =      16.000
 CELL_TOP| Vector b [angstrom     0.000    16.000     0.000    |b| =      16.000
 CELL_TOP| Vector c [angstrom     0.000     0.000    16.000    |c| =      16.000
 CELL_TOP| Angle (b,c), alpha [degree]:                                   90.000
 CELL_TOP| Angle (a,c), beta  [degree]:                                   90.000
 CELL_TOP| Angle (a,b), gamma [degree]:                                   90.000
 CELL_TOP| Numerically orthorhombic:                                         YES

 GENERATE|  Preliminary Number of Bonds generated:                             0
 GENERATE|  Achieved consistency in connectivity generation.

 CELL| Volume [angstrom^3]:                                             4096.000
 CELL| Vector a [angstrom]:      16.000     0.000     0.000    |a| =      16.000
 CELL| Vector b [angstrom]:       0.000    16.000     0.000    |b| =      16.000
 CELL| Vector c [angstrom]:       0.000     0.000    16.000    |c| =      16.000
 CELL| Angle (b,c), alpha [degree]:                                       90.000
 CELL| Angle (a,c), beta  [degree]:                                       90.000
 CELL| Angle (a,b), gamma [degree]:                                       90.000
 CELL| Numerically orthorhombic:                                             YES

 CELL_REF| Volume [angstrom^3]:                                         4096.000
 CELL_REF| Vector a [angstrom    16.000     0.000     0.000    |a| =      16.000
 CELL_REF| Vector b [angstrom     0.000    16.000     0.000    |b| =      16.000
 CELL_REF| Vector c [angstrom     0.000     0.000    16.000    |c| =      16.000
 CELL_REF| Angle (b,c), alpha [degree]:                                   90.000
 CELL_REF| Angle (a,c), beta  [degree]:                                   90.000
 CELL_REF| Angle (a,b), gamma [degree]:                                   90.000
 CELL_REF| Numerically orthorhombic:                                         YES

 *******************************************************************************
 *******************************************************************************
 **                                                                           **
 **     #####                         ##              ##                      **
 **    ##   ##            ##          ##              ##                      **
 **   ##     ##                       ##            ######                    **
 **   ##     ##  ##   ##  ##   #####  ##  ##   ####   ##    #####    #####    **
 **   ##     ##  ##   ##  ##  ##      ## ##   ##      ##   ##   ##  ##   ##   **
 **   ##  ## ##  ##   ##  ##  ##      ####     ###    ##   ######   ######    **
 **    ##  ###   ##   ##  ##  ##      ## ##      ##   ##   ##       ##        **
 **     #######   #####   ##   #####  ##  ##  ####    ##    #####   ##        **
 **           ##                                                    ##        **
 **                                                                           **
 **                                                ... make the atoms dance   **
 **                                                                           **
 **            Copyright (C) by CP2K developers group (2000 - 2019)           **
 **                                                                           **
 *******************************************************************************

 DFT| Spin restricted Kohn-Sham (RKS) calculation                            RKS
 DFT| Multiplicity                                                             1
 DFT| Number of spin states                                                    1
 DFT| Charge                                                                   0
 DFT| Self-interaction correction (SIC)                                       NO
 DFT| Cutoffs: density                                              1.000000E-10
 DFT|          gradient                                             1.000000E-10
 DFT|          tau                                                  1.000000E-10
 DFT|          cutoff_smoothing_range                               0.000000E+00
 DFT| XC density smoothing                                                  NONE
 DFT| XC derivatives                                                          PW
 FUNCTIONAL| ROUTINE=NEW
 FUNCTIONAL| PBE:
 FUNCTIONAL| J.P.Perdew, K.Burke, M.Ernzerhof, Phys. Rev. Letter, vol. 77, n 18,
 FUNCTIONAL|  pp. 3865-3868, (1996){spin unpolarized}                           

 QS| Method:                                                                GAPW
 QS| Density plane wave grid type                        NON-SPHERICAL FULLSPACE
 QS| Number of grid levels:                                                    4
 QS| Density cutoff [a.u.]:                                                200.0
 QS| Multi grid cutoff [a.u.]: 1) grid level                               200.0
 QS|                           2) grid level                                66.7
 QS|                           3) grid level                                22.2
 QS|                           4) grid level                                 7.4
 QS| Grid level progression factor:                                          3.0
 QS| Relative density cutoff [a.u.]:                                        25.0
 QS| Consistent realspace mapping and integration 
 QS| Interaction thresholds: eps_pgf_orb:                                1.0E-05
 QS|                         eps_filter_matrix:                          0.0E+00
 QS|                         eps_core_charge:                            1.0E-12
 QS|                         eps_rho_gspace:                             1.0E-10
 QS|                         eps_rho_rspace:                             1.0E-10
 QS|                         eps_gvg_rspace:                             1.0E-05
 QS|                         eps_ppl:                                    1.0E-02
 QS|                         eps_ppnl:                                   1.0E-07
 QS| GAPW|                   eps_fit:                                    1.0E-04
 QS| GAPW|                   eps_iso:                                    1.0E-12
 QS| GAPW|                   eps_svd:                                    1.0E-08
 QS| GAPW|                   eps_cpc:                                    1.0E-10
 QS| GAPW|   atom-r-grid: quadrature:                 GC_LOG                        
 QS| GAPW|      atom-s-grid:  max l :                                          8
 QS| GAPW|      max_l_rho0 :                                                   2


 ATOMIC KIND INFORMATION

  1. Atomic kind: P                                     Number of atoms:       2

     Orbital Basis Set                                                 def2-QZVP

       Number of orbital shell sets:                                          22
       Number of orbital shells:                                              22
       Number of primitive Cartesian functions:                               41
       Number of Cartesian basis functions:                                   86
       Number of spherical basis functions:                                   70
       Norm type:                                                              2

       Normalised Cartesian orbitals:

                        Set   Shell   Orbital            Exponent    Coefficient

                          1       1    1s          1090561.713800       0.354233
                                                    163316.394610       0.662930
                                                     37166.607451       1.148249
                                                     10526.880945       1.877659
                                                      3433.997603       2.927385
                                                      1239.536048       4.335998
                                                       483.274562       5.990498
                                                       200.169116       7.350778
                                                        86.960395       7.320103
                                                        39.211283       4.901825

                          2       1    1s              336.758837       1.344521
                                                       103.721798       4.972397
                                                        39.771861       9.006443

                          3       1    1s               17.888613       6.199299

                          4       1    1s                6.964456       3.055452

                          5       1    1s                3.219809       1.713100

                          6       1    1s                1.466994       0.950017

                          7       1    1s                0.477654       0.409492

                          8       1    1s                0.216378       0.226110

                          9       1    1s                0.090236       0.117340

                         10       1    1px            2019.671137       4.421439
                                                       478.601251       6.355195
                                                       155.149425       8.430928
                                                        58.816357       9.862858
                                                        24.544513       9.802663
                                                        10.883571       7.540891
                                                         4.962479       4.124365
                                                         2.300291       1.375764
                         10       1    1py            2019.671137       4.421439
                                                       478.601251       6.355195
                                                       155.149425       8.430928
                                                        58.816357       9.862858
                                                        24.544513       9.802663
                                                        10.883571       7.540891
                                                         4.962479       4.124365
                                                         2.300291       1.375764
                         10       1    1pz            2019.671137       4.421439
                                                       478.601251       6.355195
                                                       155.149425       8.430928
                                                        58.816357       9.862858
                                                        24.544513       9.802663
                                                        10.883571       7.540891
                                                         4.962479       4.124365
                                                         2.300291       1.375764

                         11       1    1px              59.371345      14.666663
                                                         3.069459      -5.824509
                         11       1    1py              59.371345      14.666663
                                                         3.069459      -5.824509
                         11       1    1pz              59.371345      14.666663
                                                         3.069459      -5.824509

                         12       1    1px               1.063440       1.539329
                         12       1    1py               1.063440       1.539329
                         12       1    1pz               1.063440       1.539329

                         13       1    1px               0.450222       0.525682
                         13       1    1py               0.450222       0.525682
                         13       1    1pz               0.450222       0.525682

                         14       1    1px               0.182673       0.170228
                         14       1    1py               0.182673       0.170228
                         14       1    1pz               0.182673       0.170228

                         15       1    1px               0.071610       0.052803
                         15       1    1py               0.071610       0.052803
                         15       1    1pz               0.071610       0.052803

                         16       1    1dx2              3.343000      13.603420
                         16       1    1dxy              3.343000      23.561815
                         16       1    1dxz              3.343000      23.561815
                         16       1    1dy2              3.343000      13.603420
                         16       1    1dyz              3.343000      23.561815
                         16       1    1dz2              3.343000      13.603420

                         17       1    1dx2              0.807000       1.130936
                         17       1    1dxy              0.807000       1.958839
                         17       1    1dxz              0.807000       1.958839
                         17       1    1dy2              0.807000       1.130936
                         17       1    1dyz              0.807000       1.958839
                         17       1    1dz2              0.807000       1.130936

                         18       1    1dx2              0.365000       0.282112
                         18       1    1dxy              0.365000       0.488633
                         18       1    1dxz              0.365000       0.488633
                         18       1    1dy2              0.365000       0.282112
                         18       1    1dyz              0.365000       0.488633
                         18       1    1dz2              0.365000       0.282112

                         19       1    1dx2              0.154000       0.062312
                         19       1    1dxy              0.154000       0.107927
                         19       1    1dxz              0.154000       0.107927
                         19       1    1dy2              0.154000       0.062312
                         19       1    1dyz              0.154000       0.107927
                         19       1    1dz2              0.154000       0.062312

                         20       1    1fx3              0.280000       0.083958
                         20       1    1fx2y             0.280000       0.187735
                         20       1    1fx2z             0.280000       0.187735
                         20       1    1fxy2             0.280000       0.187735
                         20       1    1fxyz             0.280000       0.325166
                         20       1    1fxz2             0.280000       0.187735
                         20       1    1fy3              0.280000       0.083958
                         20       1    1fy2z             0.280000       0.187735
                         20       1    1fyz2             0.280000       0.187735
                         20       1    1fz3              0.280000       0.083958

                         21       1    1fx3              0.703000       0.666199
                         21       1    1fx2y             0.703000       1.489666
                         21       1    1fx2z             0.703000       1.489666
                         21       1    1fxy2             0.703000       1.489666
                         21       1    1fxyz             0.703000       2.580177
                         21       1    1fxz2             0.703000       1.489666
                         21       1    1fy3              0.703000       0.666199
                         21       1    1fy2z             0.703000       1.489666
                         21       1    1fyz2             0.703000       1.489666
                         21       1    1fz3              0.703000       0.666199

                         22       1    1gx4              0.597000       0.269380
                         22       1    1gx3y             0.597000       0.712712
                         22       1    1gx3z             0.597000       0.712712
                         22       1    1gx2y2            0.597000       0.920107
                         22       1    1gx2yz            0.597000       1.593672
                         22       1    1gx2z2            0.597000       0.920107
                         22       1    1gxy3             0.597000       0.712712
                         22       1    1gxy2z            0.597000       1.593672
                         22       1    1gxyz2            0.597000       1.593672
                         22       1    1gxz3             0.597000       0.712712
                         22       1    1gy4              0.597000       0.269380
                         22       1    1gy3z             0.597000       0.712712
                         22       1    1gy2z2            0.597000       0.920107
                         22       1    1gyz3             0.597000       0.712712
                         22       1    1gz4              0.597000       0.269380

     RI Auxiliary Basis Set                                                RI-5Z

       Number of orbital shell sets:                                          48
       Number of orbital shells:                                              48
       Number of primitive Cartesian functions:                               48
       Number of Cartesian basis functions:                                  335
       Number of spherical basis functions:                                  230
       Norm type:                                                              2

       Normalised Cartesian orbitals:

                        Set   Shell   Orbital            Exponent    Coefficient

                          1       1    1s              901.738000     117.279032

                          2       1    1s              197.096000      37.490260

                          3       1    1s               81.752300      19.376935

                          4       1    1s               26.055500       8.219297

                          5       1    1s               10.962400       4.293775

                          6       1    1s                4.737650       2.288665

                          7       1    1s                2.761420       1.526720

                          8       1    1s                1.228660       0.831733

                          9       1    1s                0.695379       0.542721

                         10       1    1s                0.450632       0.391991

                         11       1    1s                0.230804       0.237325

                         12       1    1s                0.133265       0.157198

                         13       1    1px             247.839000    1401.690558
                         13       1    1py             247.839000    1401.690558
                         13       1    1pz             247.839000    1401.690558

                         14       1    1px              74.952700     314.357763
                         14       1    1py              74.952700     314.357763
                         14       1    1pz              74.952700     314.357763

                         15       1    1px              26.436800      85.447861
                         15       1    1py              26.436800      85.447861
                         15       1    1pz              26.436800      85.447861

                         16       1    1px              12.270500      32.735420
                         16       1    1py              12.270500      32.735420
                         16       1    1pz              12.270500      32.735420

                         17       1    1px               5.686810      12.517742
                         17       1    1py               5.686810      12.517742
                         17       1    1pz               5.686810      12.517742

                         18       1    1px               2.784010       5.126000
                         18       1    1py               2.784010       5.126000
                         18       1    1pz               2.784010       5.126000

                         19       1    1px               1.353540       2.081033
                         19       1    1py               1.353540       2.081033
                         19       1    1pz               1.353540       2.081033

                         20       1    1px               0.837864       1.142634
                         20       1    1py               0.837864       1.142634
                         20       1    1pz               0.837864       1.142634

                         21       1    1px               0.533820       0.650405
                         21       1    1py               0.533820       0.650405
                         21       1    1pz               0.533820       0.650405

                         22       1    1px               0.344629       0.376383
                         22       1    1py               0.344629       0.376383
                         22       1    1pz               0.344629       0.376383

                         23       1    1px               0.154352       0.137905
                         23       1    1py               0.154352       0.137905
                         23       1    1pz               0.154352       0.137905

                         24       1    1dx2             74.265300    3092.323001
                         24       1    1dxy             74.265300    5356.060551
                         24       1    1dxz             74.265300    5356.060551
                         24       1    1dy2             74.265300    3092.323001
                         24       1    1dyz             74.265300    5356.060551
                         24       1    1dz2             74.265300    3092.323001

                         25       1    1dx2             23.933000     426.240245
                         25       1    1dxy             23.933000     738.269760
                         25       1    1dxz             23.933000     738.269760
                         25       1    1dy2             23.933000     426.240245
                         25       1    1dyz             23.933000     738.269760
                         25       1    1dz2             23.933000     426.240245

                         26       1    1dx2              8.160200      64.846399
                         26       1    1dxy              8.160200     112.317257
                         26       1    1dxz              8.160200     112.317257
                         26       1    1dy2              8.160200      64.846399
                         26       1    1dyz              8.160200     112.317257
                         26       1    1dz2              8.160200      64.846399

                         27       1    1dx2              4.103230      19.470617
                         27       1    1dxy              4.103230      33.724098
                         27       1    1dxz              4.103230      33.724098
                         27       1    1dy2              4.103230      19.470617
                         27       1    1dyz              4.103230      33.724098
                         27       1    1dz2              4.103230      19.470617

                         28       1    1dx2              1.563160       3.596793
                         28       1    1dxy              1.563160       6.229829
                         28       1    1dxz              1.563160       6.229829
                         28       1    1dy2              1.563160       3.596793
                         28       1    1dyz              1.563160       6.229829
                         28       1    1dz2              1.563160       3.596793

                         29       1    1dx2              0.996352       1.635430
                         29       1    1dxy              0.996352       2.832647
                         29       1    1dxz              0.996352       2.832647
                         29       1    1dy2              0.996352       1.635430
                         29       1    1dyz              0.996352       2.832647
                         29       1    1dz2              0.996352       1.635430

                         30       1    1dx2              0.569553       0.614602
                         30       1    1dxy              0.569553       1.064522
                         30       1    1dxz              0.569553       1.064522
                         30       1    1dy2              0.569553       0.614602
                         30       1    1dyz              0.569553       1.064522
                         30       1    1dz2              0.569553       0.614602

                         31       1    1dx2              0.308619       0.210329
                         31       1    1dxy              0.308619       0.364300
                         31       1    1dxz              0.308619       0.364300
                         31       1    1dy2              0.308619       0.210329
                         31       1    1dyz              0.308619       0.364300
                         31       1    1dz2              0.308619       0.210329

                         32       1    1dx2              0.166558       0.071474
                         32       1    1dxy              0.166558       0.123797
                         32       1    1dxz              0.166558       0.123797
                         32       1    1dy2              0.166558       0.071474
                         32       1    1dyz              0.166558       0.123797
                         32       1    1dz2              0.166558       0.071474

                         33       1    1fx3             15.731200     725.552124
                         33       1    1fx2y            15.731200    1622.383871
                         33       1    1fx2z            15.731200    1622.383871
                         33       1    1fxy2            15.731200    1622.383871
                         33       1    1fxyz            15.731200    2810.051294
                         33       1    1fxz2            15.731200    1622.383871
                         33       1    1fy3             15.731200     725.552124
                         33       1    1fy2z            15.731200    1622.383871
                         33       1    1fyz2            15.731200    1622.383871
                         33       1    1fz3             15.731200     725.552124

                         34       1    1fx3              7.511490     137.511228
                         34       1    1fx2y             7.511490     307.484453
                         34       1    1fx2z             7.511490     307.484453
                         34       1    1fxy2             7.511490     307.484453
                         34       1    1fxyz             7.511490     532.578695
                         34       1    1fxz2             7.511490     307.484453
                         34       1    1fy3              7.511490     137.511228
                         34       1    1fy2z             7.511490     307.484453
                         34       1    1fyz2             7.511490     307.484453
                         34       1    1fz3              7.511490     137.511228

                         35       1    1fx3              3.578070      25.921750
                         35       1    1fx2y             3.578070      57.962796
                         35       1    1fx2z             3.578070      57.962796
                         35       1    1fxy2             3.578070      57.962796
                         35       1    1fxyz             3.578070     100.394507
                         35       1    1fxz2             3.578070      57.962796
                         35       1    1fy3              3.578070      25.921750
                         35       1    1fy2z             3.578070      57.962796
                         35       1    1fyz2             3.578070      57.962796
                         35       1    1fz3              3.578070      25.921750

                         36       1    1fx3              1.337750       2.833336
                         36       1    1fx2y             1.337750       6.335532
                         36       1    1fx2z             1.337750       6.335532
                         36       1    1fxy2             1.337750       6.335532
                         36       1    1fxyz             1.337750      10.973464
                         36       1    1fxz2             1.337750       6.335532
                         36       1    1fy3              1.337750       2.833336
                         36       1    1fy2z             1.337750       6.335532
                         36       1    1fyz2             1.337750       6.335532
                         36       1    1fz3              1.337750       2.833336

                         37       1    1fx3              1.004780       1.488038
                         37       1    1fx2y             1.004780       3.327355
                         37       1    1fx2z             1.004780       3.327355
                         37       1    1fxy2             1.004780       3.327355
                         37       1    1fxyz             1.004780       5.763148
                         37       1    1fxz2             1.004780       3.327355
                         37       1    1fy3              1.004780       1.488038
                         37       1    1fy2z             1.004780       3.327355
                         37       1    1fyz2             1.004780       3.327355
                         37       1    1fz3              1.004780       1.488038

                         38       1    1fx3              0.555856       0.392753
                         38       1    1fx2y             0.555856       0.878223
                         38       1    1fx2z             0.555856       0.878223
                         38       1    1fxy2             0.555856       0.878223
                         38       1    1fxyz             0.555856       1.521126
                         38       1    1fxz2             0.555856       0.878223
                         38       1    1fy3              0.555856       0.392753
                         38       1    1fy2z             0.555856       0.878223
                         38       1    1fyz2             0.555856       0.878223
                         38       1    1fz3              0.555856       0.392753

                         39       1    1fx3              0.295632       0.094874
                         39       1    1fx2y             0.295632       0.212144
                         39       1    1fx2z             0.295632       0.212144
                         39       1    1fxy2             0.295632       0.212144
                         39       1    1fxyz             0.295632       0.367444
                         39       1    1fxz2             0.295632       0.212144
                         39       1    1fy3              0.295632       0.094874
                         39       1    1fy2z             0.295632       0.212144
                         39       1    1fyz2             0.295632       0.212144
                         39       1    1fz3              0.295632       0.094874

                         40       1    1gx4              4.797550      83.030772
                         40       1    1gx3y             4.797550     219.678774
                         40       1    1gx3z             4.797550     219.678774
                         40       1    1gx2y2            4.797550     283.604078
                         40       1    1gx2yz            4.797550     491.216673
                         40       1    1gx2z2            4.797550     283.604078
                         40       1    1gxy3             4.797550     219.678774
                         40       1    1gxy2z            4.797550     491.216673
                         40       1    1gxyz2            4.797550     491.216673
                         40       1    1gxz3             4.797550     219.678774
                         40       1    1gy4              4.797550      83.030772
                         40       1    1gy3z             4.797550     219.678774
                         40       1    1gy2z2            4.797550     283.604078
                         40       1    1gyz3             4.797550     219.678774
                         40       1    1gz4              4.797550      83.030772

                         41       1    1gx4              2.063030       8.153154
                         41       1    1gx3y             2.063030      21.571219
                         41       1    1gx3z             2.063030      21.571219
                         41       1    1gx2y2            2.063030      27.848324
                         41       1    1gx2yz            2.063030      48.234712
                         41       1    1gx2z2            2.063030      27.848324
                         41       1    1gxy3             2.063030      21.571219
                         41       1    1gxy2z            2.063030      48.234712
                         41       1    1gxyz2            2.063030      48.234712
                         41       1    1gxz3             2.063030      21.571219
                         41       1    1gy4              2.063030       8.153154
                         41       1    1gy3z             2.063030      21.571219
                         41       1    1gy2z2            2.063030      27.848324
                         41       1    1gyz3             2.063030      21.571219
                         41       1    1gz4              2.063030       8.153154

                         42       1    1gx4              1.105540       1.466443
                         42       1    1gx3y             1.105540       3.879844
                         42       1    1gx3z             1.105540       3.879844
                         42       1    1gx2y2            1.105540       5.008856
                         42       1    1gx2yz            1.105540       8.675594
                         42       1    1gx2z2            1.105540       5.008856
                         42       1    1gxy3             1.105540       3.879844
                         42       1    1gxy2z            1.105540       8.675594
                         42       1    1gxyz2            1.105540       8.675594
                         42       1    1gxz3             1.105540       3.879844
                         42       1    1gy4              1.105540       1.466443
                         42       1    1gy3z             1.105540       3.879844
                         42       1    1gy2z2            1.105540       5.008856
                         42       1    1gyz3             1.105540       3.879844
                         42       1    1gz4              1.105540       1.466443

                         43       1    1gx4              0.666541       0.364720
                         43       1    1gx3y             0.666541       0.964958
                         43       1    1gx3z             0.666541       0.964958
                         43       1    1gx2y2            0.666541       1.245755
                         43       1    1gx2yz            0.666541       2.157711
                         43       1    1gx2z2            0.666541       1.245755
                         43       1    1gxy3             0.666541       0.964958
                         43       1    1gxy2z            0.666541       2.157711
                         43       1    1gxyz2            0.666541       2.157711
                         43       1    1gxz3             0.666541       0.964958
                         43       1    1gy4              0.666541       0.364720
                         43       1    1gy3z             0.666541       0.964958
                         43       1    1gy2z2            0.666541       1.245755
                         43       1    1gyz3             0.666541       0.964958
                         43       1    1gz4              0.666541       0.364720

                         44       1    1gx4              0.340877       0.057687
                         44       1    1gx3y             0.340877       0.152626
                         44       1    1gx3z             0.340877       0.152626
                         44       1    1gx2y2            0.340877       0.197039
                         44       1    1gx2yz            0.340877       0.341282
                         44       1    1gx2z2            0.340877       0.197039
                         44       1    1gxy3             0.340877       0.152626
                         44       1    1gxy2z            0.340877       0.341282
                         44       1    1gxyz2            0.340877       0.341282
                         44       1    1gxz3             0.340877       0.152626
                         44       1    1gy4              0.340877       0.057687
                         44       1    1gy3z             0.340877       0.152626
                         44       1    1gy2z2            0.340877       0.197039
                         44       1    1gyz3             0.340877       0.152626
                         44       1    1gz4              0.340877       0.057687

                         45       1    1hx5              2.962710      25.312432
                         45       1    1hx4y             2.962710      75.937297
                         45       1    1hx4z             2.962710      75.937297
                         45       1    1hx3y2            2.962710     115.996138
                         45       1    1hx3yz            2.962710     200.911204
                         45       1    1hx3z2            2.962710     115.996138
                         45       1    1hx2y3            2.962710     115.996138
                         45       1    1hx2y2z           2.962710     259.375249
                         45       1    1hx2yz2           2.962710     259.375249
                         45       1    1hx2z3            2.962710     115.996138
                         45       1    1hxy4             2.962710      75.937297
                         45       1    1hxy3z            2.962710     200.911204
                         45       1    1hxy2z2           2.962710     259.375249
                         45       1    1hxyz3            2.962710     200.911204
                         45       1    1hxz4             2.962710      75.937297
                         45       1    1hy5              2.962710      25.312432
                         45       1    1hy4z             2.962710      75.937297
                         45       1    1hy3z2            2.962710     115.996138
                         45       1    1hy2z3            2.962710     115.996138
                         45       1    1hyz4             2.962710      75.937297
                         45       1    1hz5              2.962710      25.312432

                         46       1    1hx5              1.117250       1.063734
                         46       1    1hx4y             1.117250       3.191201
                         46       1    1hx4z             1.117250       3.191201
                         46       1    1hx3y2            1.117250       4.874639
                         46       1    1hx3yz            1.117250       8.443123
                         46       1    1hx3z2            1.117250       4.874639
                         46       1    1hx2y3            1.117250       4.874639
                         46       1    1hx2y2z           1.117250      10.900025
                         46       1    1hx2yz2           1.117250      10.900025
                         46       1    1hx2z3            1.117250       4.874639
                         46       1    1hxy4             1.117250       3.191201
                         46       1    1hxy3z            1.117250       8.443123
                         46       1    1hxy2z2           1.117250      10.900025
                         46       1    1hxyz3            1.117250       8.443123
                         46       1    1hxz4             1.117250       3.191201
                         46       1    1hy5              1.117250       1.063734
                         46       1    1hy4z             1.117250       3.191201
                         46       1    1hy3z2            1.117250       4.874639
                         46       1    1hy2z3            1.117250       4.874639
                         46       1    1hyz4             1.117250       3.191201
                         46       1    1hz5              1.117250       1.063734

                         47       1    1hx5              0.634887       0.169476
                         47       1    1hx4y             0.634887       0.508427
                         47       1    1hx4z             0.634887       0.508427
                         47       1    1hx3y2            0.634887       0.776635
                         47       1    1hx3yz            0.634887       1.345172
                         47       1    1hx3z2            0.634887       0.776635
                         47       1    1hx2y3            0.634887       0.776635
                         47       1    1hx2y2z           0.634887       1.736610
                         47       1    1hx2yz2           0.634887       1.736610
                         47       1    1hx2z3            0.634887       0.776635
                         47       1    1hxy4             0.634887       0.508427
                         47       1    1hxy3z            0.634887       1.345172
                         47       1    1hxy2z2           0.634887       1.736610
                         47       1    1hxyz3            0.634887       1.345172
                         47       1    1hxz4             0.634887       0.508427
                         47       1    1hy5              0.634887       0.169476
                         47       1    1hy4z             0.634887       0.508427
                         47       1    1hy3z2            0.634887       0.776635
                         47       1    1hy2z3            0.634887       0.776635
                         47       1    1hyz4             0.634887       0.508427
                         47       1    1hz5              0.634887       0.169476

                         48       1    1ix6              1.026470       0.493431
                         48       1    1ix5y             1.026470       1.636525
                         48       1    1ix5z             1.026470       1.636525
                         48       1    1ix4y2            1.026470       2.834544
                         48       1    1ix4yz            1.026470       4.909575
                         48       1    1ix4z2            1.026470       2.834544
                         48       1    1ix3y3            1.026470       3.353878
                         48       1    1ix3y2z           1.026470       7.499500
                         48       1    1ix3yz2           1.026470       7.499500
                         48       1    1ix3z3            1.026470       3.353878
                         48       1    1ix2y4            1.026470       2.834544
                         48       1    1ix2y3z           1.026470       7.499500
                         48       1    1ix2y2z2          1.026470       9.681812
                         48       1    1ix2yz3           1.026470       7.499500
                         48       1    1ix2z4            1.026470       2.834544
                         48       1    1ixy5             1.026470       1.636525
                         48       1    1ixy4z            1.026470       4.909575
                         48       1    1ixy3z2           1.026470       7.499500
                         48       1    1ixy2z3           1.026470       7.499500
                         48       1    1ixyz4            1.026470       4.909575
                         48       1    1ixz5             1.026470       1.636525
                         48       1    1iy6              1.026470       0.493431
                         48       1    1iy5z             1.026470       1.636525
                         48       1    1iy4z2            1.026470       2.834544
                         48       1    1iy3z3            1.026470       3.353878
                         48       1    1iy2z4            1.026470       2.834544
                         48       1    1iyz5             1.026470       1.636525
                         48       1    1iz6              1.026470       0.493431

     The atoms of this atomic kind are PAW atoms (GAPW):
       Hard Gaussian function radius:                                      1.512
       Rho0 radius:                                                        1.512
       Maximum GTO radius used for PAW projector construction:            24.566

     GAPW Soft Basis Set                                          def2-QZVP_soft

       Number of orbital shell sets:                                          22
       Number of orbital shells:                                              22
       Number of primitive Cartesian functions:                               18
       Number of Cartesian basis functions:                                   86
       Number of spherical basis functions:                                   70
       Norm type:                                                              2

       Normalised Cartesian orbitals:

                        Set   Shell   Orbital            Exponent    Coefficient

                          1       1    1s         

                          2       1    1s         

                          3       1    1s         

                          4       1    1s         

                          5       1    1s                3.219809       1.713100

                          6       1    1s                1.466994       0.950017

                          7       1    1s                0.477654       0.409492

                          8       1    1s                0.216378       0.226110

                          9       1    1s                0.090236       0.117340

                         10       1    1px               2.300291       1.375764
                         10       1    1py               2.300291       1.375764
                         10       1    1pz               2.300291       1.375764

                         11       1    1px               3.069459      -5.824509
                         11       1    1py               3.069459      -5.824509
                         11       1    1pz               3.069459      -5.824509

                         12       1    1px               1.063440       1.539329
                         12       1    1py               1.063440       1.539329
                         12       1    1pz               1.063440       1.539329

                         13       1    1px               0.450222       0.525682
                         13       1    1py               0.450222       0.525682
                         13       1    1pz               0.450222       0.525682

                         14       1    1px               0.182673       0.170228
                         14       1    1py               0.182673       0.170228
                         14       1    1pz               0.182673       0.170228

                         15       1    1px               0.071610       0.052803
                         15       1    1py               0.071610       0.052803
                         15       1    1pz               0.071610       0.052803

                         16       1    1dx2              3.343000      13.603420
                         16       1    1dxy              3.343000      23.561815
                         16       1    1dxz              3.343000      23.561815
                         16       1    1dy2              3.343000      13.603420
                         16       1    1dyz              3.343000      23.561815
                         16       1    1dz2              3.343000      13.603420

                         17       1    1dx2              0.807000       1.130936
                         17       1    1dxy              0.807000       1.958839
                         17       1    1dxz              0.807000       1.958839
                         17       1    1dy2              0.807000       1.130936
                         17       1    1dyz              0.807000       1.958839
                         17       1    1dz2              0.807000       1.130936

                         18       1    1dx2              0.365000       0.282112
                         18       1    1dxy              0.365000       0.488633
                         18       1    1dxz              0.365000       0.488633
                         18       1    1dy2              0.365000       0.282112
                         18       1    1dyz              0.365000       0.488633
                         18       1    1dz2              0.365000       0.282112

                         19       1    1dx2              0.154000       0.062312
                         19       1    1dxy              0.154000       0.107927
                         19       1    1dxz              0.154000       0.107927
                         19       1    1dy2              0.154000       0.062312
                         19       1    1dyz              0.154000       0.107927
                         19       1    1dz2              0.154000       0.062312

                         20       1    1fx3              0.280000       0.083958
                         20       1    1fx2y             0.280000       0.187735
                         20       1    1fx2z             0.280000       0.187735
                         20       1    1fxy2             0.280000       0.187735
                         20       1    1fxyz             0.280000       0.325166
                         20       1    1fxz2             0.280000       0.187735
                         20       1    1fy3              0.280000       0.083958
                         20       1    1fy2z             0.280000       0.187735
                         20       1    1fyz2             0.280000       0.187735
                         20       1    1fz3              0.280000       0.083958

                         21       1    1fx3              0.703000       0.666199
                         21       1    1fx2y             0.703000       1.489666
                         21       1    1fx2z             0.703000       1.489666
                         21       1    1fxy2             0.703000       1.489666
                         21       1    1fxyz             0.703000       2.580177
                         21       1    1fxz2             0.703000       1.489666
                         21       1    1fy3              0.703000       0.666199
                         21       1    1fy2z             0.703000       1.489666
                         21       1    1fyz2             0.703000       1.489666
                         21       1    1fz3              0.703000       0.666199

                         22       1    1gx4              0.597000       0.269380
                         22       1    1gx3y             0.597000       0.712712
                         22       1    1gx3z             0.597000       0.712712
                         22       1    1gx2y2            0.597000       0.920107
                         22       1    1gx2yz            0.597000       1.593672
                         22       1    1gx2z2            0.597000       0.920107
                         22       1    1gxy3             0.597000       0.712712
                         22       1    1gxy2z            0.597000       1.593672
                         22       1    1gxyz2            0.597000       1.593672
                         22       1    1gxz3             0.597000       0.712712
                         22       1    1gy4              0.597000       0.269380
                         22       1    1gy3z             0.597000       0.712712
                         22       1    1gy2z2            0.597000       0.920107
                         22       1    1gyz3             0.597000       0.712712
                         22       1    1gz4              0.597000       0.269380

     AE Potential information for                                            ALL

       Description:                                       All-electron potential
                                          Krack, Parrinello, PCCP 2, 2105 (2000)

       Gaussian exponent of the core charge distribution:               2.704164
       Electronic configuration (s p d ...):                           6   9   0


 MOLECULE KIND INFORMATION


 All atoms are their own molecule, skipping detailed information


 TOTAL NUMBERS AND MAXIMUM NUMBERS

  Total number of            - Atomic kinds:                                   1
                             - Atoms:                                          2
                             - Shell sets:                                    44
                             - Shells:                                        44
                             - Primitive Cartesian functions:                 82
                             - Cartesian basis functions:                    172
                             - Spherical basis functions:                    140

  Maximum angular momentum of the orbital basis functions:                     4


 MODULE QUICKSTEP:  ATOMIC COORDINATES IN angstrom

  Atom  Kind  Element       X           Y           Z          Z(eff)       Mass

       1     1 P   15    8.000000    8.000000    7.053450     15.00      30.9738
       2     1 P   15    8.000000    8.000000    8.946550     15.00      30.9738




 SCF PARAMETERS         Density guess:                                   RESTART
                        --------------------------------------------------------
                        max_scf:                                             200
                        max_scf_history:                                       0
                        max_diis:                                              4
                        --------------------------------------------------------
                        eps_scf:                                        1.00E-06
                        eps_scf_history:                                0.00E+00
                        eps_diis:                                       1.00E-01
                        eps_eigval:                                     1.00E-05
                        --------------------------------------------------------
                        level_shift [a.u.]:                                 0.00
                        --------------------------------------------------------
                        Mixing method:                           DIRECT_P_MIXING
                        --------------------------------------------------------
                        No outer SCF

 PW_GRID| Information for grid number                                          1
 PW_GRID| Grid distributed over                                    24 processors
 PW_GRID| Real space group dimensions                                    24    1
 PW_GRID| the grid is blocked:                                                NO
 PW_GRID| Cutoff [a.u.]                                                    400.0
 PW_GRID| spherical cutoff:                                                   NO
 PW_GRID|   Bounds   1           -144     143                Points:         288
 PW_GRID|   Bounds   2           -144     143                Points:         288
 PW_GRID|   Bounds   3           -144     143                Points:         288
 PW_GRID| Volume element (a.u.^3)  0.1157E-02     Volume (a.u.^3)     27641.1785
 PW_GRID| Grid span                                                    FULLSPACE
 PW_GRID|   Distribution                         Average         Max         Min
 PW_GRID|   G-Vectors                           995328.0      995328      995328
 PW_GRID|   G-Rays                                3456.0        3456        3456
 PW_GRID|   Real Space Points                   995328.0      995328      995328

 PW_GRID| Information for grid number                                          2
 PW_GRID| Grid distributed over                                    24 processors
 PW_GRID| Real space group dimensions                                    24    1
 PW_GRID| the grid is blocked:                                                NO
 PW_GRID| Cutoff [a.u.]                                                    200.0
 PW_GRID| spherical cutoff:                                                   NO
 PW_GRID|   Bounds   1           -100      99                Points:         200
 PW_GRID|   Bounds   2           -100      99                Points:         200
 PW_GRID|   Bounds   3           -100      99                Points:         200
 PW_GRID| Volume element (a.u.^3)  0.3455E-02     Volume (a.u.^3)     27641.1785
 PW_GRID| Grid span                                                    FULLSPACE
 PW_GRID|   Distribution                         Average         Max         Min
 PW_GRID|   G-Vectors                           333333.3      333600      333200
 PW_GRID|   G-Rays                                1666.7        1668        1666
 PW_GRID|   Real Space Points                   333333.3      360000      320000

 PW_GRID| Information for grid number                                          3
 PW_GRID| Grid distributed over                                    24 processors
 PW_GRID| Real space group dimensions                                    24    1
 PW_GRID| the grid is blocked:                                                NO
 PW_GRID| Cutoff [a.u.]                                                     66.7
 PW_GRID| spherical cutoff:                                                   NO
 PW_GRID|   Bounds   1            -60      59                Points:         120
 PW_GRID|   Bounds   2            -60      59                Points:         120
 PW_GRID|   Bounds   3            -60      59                Points:         120
 PW_GRID| Volume element (a.u.^3)  0.1600E-01     Volume (a.u.^3)     27641.1785
 PW_GRID| Grid span                                                    FULLSPACE
 PW_GRID|   Distribution                         Average         Max         Min
 PW_GRID|   G-Vectors                            72000.0       72360       71760
 PW_GRID|   G-Rays                                 600.0         603         598
 PW_GRID|   Real Space Points                    72000.0       72000       72000

 PW_GRID| Information for grid number                                          4
 PW_GRID| Grid distributed over                                    24 processors
 PW_GRID| Real space group dimensions                                    24    1
 PW_GRID| the grid is blocked:                                                NO
 PW_GRID| Cutoff [a.u.]                                                     22.2
 PW_GRID| spherical cutoff:                                                   NO
 PW_GRID|   Bounds   1            -36      35                Points:          72
 PW_GRID|   Bounds   2            -36      35                Points:          72
 PW_GRID|   Bounds   3            -36      35                Points:          72
 PW_GRID| Volume element (a.u.^3)  0.7406E-01     Volume (a.u.^3)     27641.1785
 PW_GRID| Grid span                                                    FULLSPACE
 PW_GRID|   Distribution                         Average         Max         Min
 PW_GRID|   G-Vectors                            15552.0       15768       15408
 PW_GRID|   G-Rays                                 216.0         219         214
 PW_GRID|   Real Space Points                    15552.0       15552       15552

 PW_GRID| Information for grid number                                          5
 PW_GRID| Grid distributed over                                    24 processors
 PW_GRID| Real space group dimensions                                    24    1
 PW_GRID| the grid is blocked:                                                NO
 PW_GRID| Cutoff [a.u.]                                                      7.4
 PW_GRID| spherical cutoff:                                                   NO
 PW_GRID|   Bounds   1            -20      19                Points:          40
 PW_GRID|   Bounds   2            -20      19                Points:          40
 PW_GRID|   Bounds   3            -20      19                Points:          40
 PW_GRID| Volume element (a.u.^3)  0.4319         Volume (a.u.^3)     27641.1785
 PW_GRID| Grid span                                                    FULLSPACE
 PW_GRID|   Distribution                         Average         Max         Min
 PW_GRID|   G-Vectors                             2666.7        2720        2640
 PW_GRID|   G-Rays                                  66.7          68          66
 PW_GRID|   Real Space Points                     2666.7        3200        1600

 POISSON| Solver                                          Martyna-Tuckerman (MT)
 POISSON| MT| Alpha                                                        7.000
 POISSON| MT| Relative cutoff                                                2.0
 POISSON| Periodicity                                                       NONE

 RS_GRID| Information for grid number                                          2
 RS_GRID|   Bounds   1           -100      99                Points:         200
 RS_GRID|   Bounds   2           -100      99                Points:         200
 RS_GRID|   Bounds   3           -100      99                Points:         200
 RS_GRID| Real space distribution over                                  4 groups
 RS_GRID| Real space distribution along direction                              2
 RS_GRID| Border size                                                         23
 RS_GRID| Real space distribution over                                  6 groups
 RS_GRID| Real space distribution along direction                              3
 RS_GRID| Border size                                                         23
 RS_GRID|   Distribution                         Average         Max         Min
 RS_GRID|   Planes                                  96.0          96          96
 RS_GRID|   Distribution                         Average         Max         Min
 RS_GRID|   Planes                                  79.3          80          79

 RS_GRID| Information for grid number                                          3
 RS_GRID|   Bounds   1            -60      59                Points:         120
 RS_GRID|   Bounds   2            -60      59                Points:         120
 RS_GRID|   Bounds   3            -60      59                Points:         120
 RS_GRID| Real space distribution over                                  4 groups
 RS_GRID| Real space distribution along direction                              2
 RS_GRID| Border size                                                         26
 RS_GRID| Real space distribution over                                  6 groups
 RS_GRID| Real space distribution along direction                              3
 RS_GRID| Border size                                                         26
 RS_GRID|   Distribution                         Average         Max         Min
 RS_GRID|   Planes                                  82.0          82          82
 RS_GRID|   Distribution                         Average         Max         Min
 RS_GRID|   Planes                                  72.0          72          72

 RS_GRID| Information for grid number                                          4
 RS_GRID|   Bounds   1            -36      35                Points:          72
 RS_GRID|   Bounds   2            -36      35                Points:          72
 RS_GRID|   Bounds   3            -36      35                Points:          72
 RS_GRID| Real space fully replicated
 RS_GRID| Group size                                                           1

 RS_GRID| Information for grid number                                          5
 RS_GRID|   Bounds   1            -20      19                Points:          40
 RS_GRID|   Bounds   2            -20      19                Points:          40
 RS_GRID|   Bounds   3            -20      19                Points:          40
 RS_GRID| Real space fully replicated
 RS_GRID| Group size                                                           1
 
 RI-RPA| using GPW style
 

  HFX_INFO| Replica ID:                                                        1
  HFX_INFO| EPS_SCHWARZ:                                                 2.0E-17
  HFX_INFO| EPS_SCHWARZ_FORCES                                           1.0E-06
  HFX_INFO| EPS_STORAGE_SCALING:                                         1.0E+00
  HFX_INFO| NBINS:                                                            64
  HFX_INFO| BLOCK_SIZE:                                                        1
  HFX_INFO| FRACTION:                                               1.0000000000
  HFX_INFO| Interaction Potential:                                       COULOMB
  HFX_INFO| Number of periodic shells considered:                           NONE
  HFX_INFO| Number of periodic cells considered:                            NONE


 Number of electrons:                                                         30
 Number of occupied orbitals:                                                 15
 Number of molecular orbitals:                                                15

 Number of orbital functions:                                                140
 Number of independent orbital functions:                                    140

 Extrapolation method: initial_guess


 SCF WAVEFUNCTION OPTIMIZATION

  Step     Update method      Time    Convergence         Total energy    Change
  ------------------------------------------------------------------------------
     1 P_Mix/Diag. 0.40E+00    3.1     0.00000315      -682.4237051768 -6.82E+02
     2 P_Mix/Diag. 0.40E+00    3.1     0.00000406      -682.4237051768  1.03E-11
     3 DIIS/Diag.  0.74E-05    3.1     0.00000092      -682.4237051768  1.43E-11

  *** SCF run converged in     3 steps ***


  Electronic density on regular grids:        -15.3297307164       14.6702692836
  Core density on regular grids:               30.0000000000        0.0000000000
  Hard and soft densities (Lebedev):          -35.2155383866      -20.5452691821
  Total Rho_soft + Rho1_hard - Rho1_soft      -29.9999999210
  Total charge density (r-space):               0.0000000790
  Total Rho_soft + Rho0_soft (g-space):        -0.0000001090

  Overlap energy of the core charge distribution:               0.00000025360289
  Self energy of the core charge distribution:               -295.21547976336092
  Core Hamiltonian energy:                                   -387.71239420085510
  Hartree energy:                                              43.09780160705574
  Exchange-correlation energy:                                 -7.74959455982069

  GAPW| Exc from hard and soft atomic rho1:                   -38.35459814866955
  GAPW| local Eh = 1 center integrals:                          3.51055963528515

  Total energy:                                              -682.42370517676238

 !-----------------------------------------------------------------------------!
                     Mulliken Population Analysis

 #  Atom  Element  Kind  Atomic population                           Net charge
       1     P        1         15.000000                             -0.000000
       2     P        1         15.000000                              0.000000
 # Total charge                             30.000000                 -0.000000

 !-----------------------------------------------------------------------------!

 !-----------------------------------------------------------------------------!
                           Hirshfeld Charges

  #Atom  Element  Kind  Ref Charge     Population                    Net charge
      1       P      1      15.000         14.999                         0.001
      2       P      1      15.000         14.999                         0.001

  Total Charge                                                            0.002
 !-----------------------------------------------------------------------------!


 RI-RPA section
 --------------

  Used number of processes per group:                                          1
  Maximum allowed memory usage per MPI processes:                     200.00 MiB

  HFX_MEM_INFO| Est. max. program size before HFX [MiB]:                     425
  HFX_MEM_INFO| Number of cart. primitive ERI's calculated:           1189709972
  HFX_MEM_INFO| Number of sph. ERI's calculated:                       143710463
  HFX_MEM_INFO| Number of sph. ERI's stored in-core:                   143710463
  HFX_MEM_INFO| Number of sph. ERI's stored on disk:                           0
  HFX_MEM_INFO| Number of sph. ERI's calculated on the fly:                    0
  HFX_MEM_INFO| Total memory consumption ERI's RAM [MiB]:                    815
  HFX_MEM_INFO| Whereof max-vals [MiB]:                                        2
  HFX_MEM_INFO| Total compression factor ERI's RAM:                         1.35
  HFX_MEM_INFO| Total memory consumption ERI's disk [MiB]:                     0
  HFX_MEM_INFO| Total compression factor ERI's disk:                        0.00
  HFX_MEM_INFO| Size of density/Fock matrix [MiB]:                             0
  HFX_MEM_INFO| Size of buffers [MiB]:                                         0
  HFX_MEM_INFO| Est. max. program size after HFX  [MiB]:                     567

  GPW_INFO| Density cutoff [a.u.]:                                         150.0
  GPW_INFO| Relative density cutoff [a.u.]:                                 25.0
  RI_INFO| Cholesky decomposition group size:                                 24
  RI_INFO| Number of groups for auxiliary basis functions                     24
  RI_INFO| Occupied  basis set size:                                          15
  RI_INFO| Virtual   basis set size:                                         125
  RI_INFO| Auxiliary basis set size:                                         460
  RI_INFO| Total memory for (ia|K) integrals:                           6.58 MiB
  RI_INFO| Group size for frequency integration:                              24
  INTEG_INFO| MINIMAX quadrature
  INTEG_INFO| Number of integration points:                                   14
  INTEG_INFO| Number of integration points per RPA group:                     14
  MATRIX_INFO| Number row processes:                                           8
  MATRIX_INFO| Number column processes:                                        3
  MATRIX_INFO| Row block size:                                               117
  MATRIX_INFO| Column block size:                                             76
 SIZE(fm_matrix_L_RI_metric, 1) =           1
 SIZE(fm_matrix_L_RI_metric, 2) =           1
 SIZE(fm_matrix_L_RI_metric, 1) =           1
 SIZE(fm_matrix_L_RI_metric, 2) =           1
 SIZE(fm_matrix_L_RI_metric, 1) =           1
 SIZE(fm_matrix_L_RI_metric, 2) =           1
 SIZE(fm_matrix_L_RI_metric, 1) =           1
 SIZE(fm_matrix_L_RI_metric, 2) =           1
 SIZE(fm_matrix_L_RI_metric, 1) =           1
 SIZE(fm_matrix_L_RI_metric, 2) =           1
 SIZE(fm_matrix_L_RI_metric, 1) =           1
 SIZE(fm_matrix_L_RI_metric, 2) =           1
 SIZE(fm_matrix_L_RI_metric, 1) =           1
 SIZE(fm_matrix_L_RI_metric, 2) =           1
 SIZE(fm_matrix_L_RI_metric, 1) =           1
 SIZE(fm_matrix_L_RI_metric, 2) =           1
 SIZE(fm_matrix_L_RI_metric, 1) =           1
 SIZE(fm_matrix_L_RI_metric, 2) =           1
[...]
         839  0.76891204574707361      ( -3.1838818641395969E-002, -3.1102484708689260E-002)
         840  0.77389980636334754      ( -3.1781544144404532E-002, -3.1159785458352095E-002)
         841  0.77894857098597181      ( -3.1723513093031883E-002, -3.1216773061805581E-002)
         842  0.78405949106411099      ( -3.1664714075408718E-002, -3.1273436694141808E-002)
         843  0.78923374719468087      ( -3.1605135489830120E-002, -3.1329765268983213E-002)
         844  0.79447255005062556      ( -3.1544765541519471E-002, -3.1385747431939781E-002)
         845  0.79977714134489430      ( -3.1483592239345964E-002, -3.1441371553889187E-002)
         846  0.80514879483173596      ( -3.1421603392490421E-002, -3.1496625724074877E-002)
         847  0.81058881734700439      ( -3.1358786607063475E-002, -3.1551497743019921E-002)
         848  0.81609854988925890      ( -3.1295129282675499E-002, -3.1605975115248486E-002)
         849  0.82167936874354153      ( -3.1230618608955169E-002, -3.1660045041810046E-002)
         850  0.82733268664980564      ( -3.1165241562018831E-002, -3.1713694412601537E-002)
         851  0.83305995401808353      ( -3.1098984900892326E-002, -3.1766909798481624E-002)
         852  0.83886266019258626      ( -3.1031835163879820E-002, -3.1819677443170089E-002)
         853  0.84474233476705052      ( -3.0963778664886442E-002, -3.1871983254927592E-002)
         854  0.85070054895377256      ( -3.0894801489688734E-002, -3.1923812798006990E-002)
         855  0.85673891700890537      ( -3.0824889492157885E-002, -3.1975151283874598E-002)
         856  0.86285909771673230      ( -3.0754028290431504E-002, -3.2025983562189053E-002)
         857  0.86906279593578573      ( -3.0682203263038527E-002, -3.2076294111533218E-002)
         858  0.87535176420983818      ( -3.0609399544974821E-002, -3.2126067029896031E-002)
         859  0.88172780444696319      ( -3.0535602023729902E-002, -3.2175286024888575E-002)
         860  0.88819276967004490      ( -3.0460795335266983E-002, -3.2223934403693609E-002)
         861  0.89474856584231099      ( -3.0384963859955334E-002, -3.2271995062741546E-002)
         862  0.90139715377166429      ( -3.0308091718456536E-002, -3.2319450477097278E-002)
         863  0.90814055109781178      ( -3.0230162767564517E-002, -3.2366282689559496E-002)
         864  0.91498083436642097      ( -3.0151160596000228E-002, -3.2412473299455145E-002)
         865  0.92192014119478394      ( -3.0071068520164675E-002, -3.2458003451128939E-002)
         866  0.92896067253373171      ( -2.9989869579846614E-002, -3.2502853822111537E-002)
         867  0.93610469503082927      ( -2.9907546533889204E-002, -3.2547004610961806E-002)
         868  0.94335454350018144      ( -2.9824081855817738E-002, -3.2590435524772331E-002)
         869  0.95071262350450036      ( -2.9739457729426266E-002, -3.2633125766329943E-002)
         870  0.95818141405543900      ( -2.9653656044329024E-002, -3.2675054020916756E-002)
         871  0.96576347043855215      ( -2.9566658391475101E-002, -3.2716198442749159E-002)
         872  0.97346142716965245      ( -2.9478446058629846E-002, -3.2756536641038420E-002)
         873  0.98127800108974561      ( -2.9389000025825330E-002, -3.2796045665661806E-002)
         874  0.98921599460618381      ( -2.9298300960781617E-002, -3.2834701992437702E-002)
         875  0.99727829908815668      ( -2.9206329214299828E-002, -3.2872481507991123E-002)
 
 n_level_gw =          20
 AFTER evaluate_pade_function/get_z_and_m_value_pade
 energy_val =  0.31660003581772495     
 nparam_pade =           8
 omega_points_pade = (  0.0000000000000000     ,  9.9999999999999998E-013) (  0.0000000000000000     ,  3.9782473475931619E-002) (  0.0000000000000000     ,  8.2842712474619024E-002) (  0.0000000000000000     , 0.13363572758385980     ) (  0.0000000000000000     , 0.20000000000000004     ) (  0.0000000000000000     , 0.29932115253309782     ) (  0.0000000000000000     , 0.48284271247461907     ) (  0.0000000000000000     , 0.99727829908815668     )
 coeff_pade = ( -3.6756979194781193E-002, -7.2427991831558818E-014) ( -1.9549129202749176     , 0.15386394716300003     ) (  1.8967913143612658     ,-0.34781904477910325     ) (  1.2217790280154495     , -6.2754414095347348E-003) ( -1.0483609401000982     , -1.8101934729923228     ) ( -1.1760455912747692     , -1.6447169283021741     ) ( -1.8623389956007841     , -1.5918104281934686     ) (-0.63434115179546513     ,-0.71376290900176864     )
  
  GW quasiparticle energies
  -------------------------
   
  The GW quasiparticle energies are calculated according to: 
  E_GW = E_SCF + Z * ( Sigc(E_SCF) + Sigx - vxc )
   
  The energy unit of the following table is eV.  Sigc_fit is a very conservative
  estimate of the statistical error of the fitting.
   
            MO      E_SCF       Sigc   Sigc_fit   Sigx-vxc          Z       E_GW
     6 ( occ )   -123.602     -6.179      0.000    -22.820      1.000   -152.600
     7 ( occ )   -123.596     -7.361      0.000    -22.818      1.000   -153.775
     8 ( occ )   -123.596     -7.361      0.000    -22.818      1.000   -153.775
     9 ( occ )   -123.485     29.621      0.000    -22.992      1.000   -116.855
    10 ( occ )   -123.426     -8.409      0.000    -22.986      1.000   -154.821
    11 ( occ )    -16.897      5.708      0.000     -7.291      1.000    -18.480
    12 ( occ )    -11.516      2.136      0.000     -4.654      1.000    -14.033
    13 ( occ )     -7.182      0.251      0.000     -3.401      1.000    -10.331
    14 ( occ )     -7.113     -0.424      0.000     -2.661      1.000    -10.197
    15 ( occ )     -7.113     -0.424      0.000     -2.661      1.000    -10.197
    16 ( vir )     -3.403     -1.709      0.000      4.379      1.000     -0.734
    17 ( vir )     -3.403     -1.709      0.000      4.379      1.000     -0.734
    18 ( vir )      0.393     -1.510      0.000      3.596      1.000      2.479
    19 ( vir )      1.872     -1.661      0.000      3.992      1.000      4.204
    20 ( vir )      2.710     -1.382      0.000      3.498      1.000      4.826
    21 ( vir )      2.710     -1.382      0.000      3.498      1.000      4.826
    22 ( vir )      3.209     -1.038      0.000      3.118      1.000      5.289
    23 ( vir )      3.261     -1.851      0.000      4.729      1.000      6.139
    24 ( vir )      3.261     -1.851      0.000      4.729      1.000      6.139
    25 ( vir )      3.357     -2.218      0.000      4.246      1.000      5.385
   
  GW HOMO-LUMO gap (eV)                                                     9.46
  
 sigma_c_pade = ( -1.8553391574560592     , -1.4367640097888735E-002)
 z_value(n_level_gw) =  0.86215146856745828     
 m_value(n_level_gw) = -0.15988899451924551     
 level_energ_GW =  0.19909897356197456     
 
 
 n_level_gw =          20
 AFTER get_sigma_c_newton_pade
 vec_gw_energ(n_level_gw) =  -2.2179691582570080     
 Eigenval_scf(n_level_gw_ref) =   3.3570250474284604     
 nparam_pade =           8
 level_energ_GW =  0.19909897356197456     
 

  Total RI-RPA Time=                                                  484.059855
  RI-RPA energy  =                                             -1.10568457047300

  Total EXX Time=                                                      17.381397
  EXX energy  =                                               -45.15088417388627

 ENERGY| Total FORCE_EVAL ( QS ) energy (a.u.):             -682.576081212350687


 -------------------------------------------------------------------------------
 -                                                                             -
 -                                DBCSR STATISTICS                             -
 -                                                                             -
 -------------------------------------------------------------------------------
 COUNTER                                    TOTAL       BLAS       SMM       ACC
 flops    70 x    15 x    70               588000     100.0%      0.0%      0.0%
 flops    70 x    70 x    15              1764000     100.0%      0.0%      0.0%
 flops    70 x    70 x    70              2744000     100.0%      0.0%      0.0%
 flops   140 x   140 x    70              5488000     100.0%      0.0%      0.0%
 flops   230 x   230 x   230           2725408000     100.0%      0.0%      0.0%
 flops   460 x   140 x    70          10097920000     100.0%      0.0%      0.0%
 flops    70 x  1400 x    70          12512640000     100.0%      0.0%      0.0%
 flops   460 x   140 x   230          16589440000     100.0%      0.0%      0.0%
 flops   230 x   230 x   840          39814656000     100.0%      0.0%      0.0%
 flops    70 x  1330 x    70          59435040000     100.0%      0.0%      0.0%
 flops   230 x   230 x   805          76311424000     100.0%      0.0%      0.0%
 flops inhomo. stacks                           0       0.0%      0.0%      0.0%
 flops total                       217.497112E+09     100.0%      0.0%      0.0%
 flops max/rank                     37.164568E+09     100.0%      0.0%      0.0%
 matmuls inhomo. stacks                         0       0.0%      0.0%      0.0%
 matmuls total                               8630     100.0%      0.0%      0.0%
 number of processed stacks                  2750     100.0%      0.0%      0.0%
 average stack size                                     3.1       0.0       0.0
 marketing flops                   218.754646E+09
 -------------------------------------------------------------------------------
 # multiplications                            904
 max memory usage/rank             673.161216E+06
 # max total images/rank                        3
 # max 3D layers                                1
 # MPI messages exchanged                  392616
 MPI messages size (bytes):
  total size                         4.701911E+09
  min size                           0.000000E+00
  max size                         846.400000E+03
  average size                      11.975852E+03
 MPI breakdown and total messages size (bytes):
             size <=      128              378872                        0
       128 < size <=     8192                   0                        0
      8192 < size <=    32768                  38                   588000
     32768 < size <=   131072                3402                266481600
    131072 < size <=  4194304               10304               4434841600
   4194304 < size <= 16777216                   0                        0
  16777216 < size                               0                        0
 -------------------------------------------------------------------------------

 *** WARNING in dbcsr_mm.F:278 :: Using a non-square number of MPI ranks ***
 *** might lead to poor performance. Used ranks: 24 Suggested: 25 49     ***

 -------------------------------------------------------------------------------
 -                                                                             -
 -                      DBCSR MESSAGE PASSING PERFORMANCE                      -
 -                                                                             -
 -------------------------------------------------------------------------------

 ROUTINE             CALLS      AVE VOLUME [Bytes]
 MP_Group               30
 MP_Bcast               12                     12.
 MP_Allreduce         5109                      8.
 MP_Alltoall          2662                  71061.
 MP_Wait             49248
 MP_ISend            36334                  28764.
 MP_IRecv            36334                     62.
 MP_Memory           66378
 -------------------------------------------------------------------------------


 MEMORY| Estimated peak process memory [MiB]                                 642

 -------------------------------------------------------------------------------
 ----                             MULTIGRID INFO                            ----
 -------------------------------------------------------------------------------
 count for grid        1:         146289          cutoff [a.u.]          200.00
 count for grid        2:          12138          cutoff [a.u.]           66.67
 count for grid        3:          10047          cutoff [a.u.]           22.22
 count for grid        4:           2442          cutoff [a.u.]            7.41
 total gridlevel count  :         170916

 -------------------------------------------------------------------------------
 -                                                                             -
 -                         MESSAGE PASSING PERFORMANCE                         -
 -                                                                             -
 -------------------------------------------------------------------------------

 ROUTINE             CALLS      AVE VOLUME [Bytes]
 MP_Group                5
 MP_Bcast              142                2099425.
 MP_Allreduce          384                  92128.
 MP_Sync                74
 MP_Alltoall           163                6100746.
 MP_ISendRecv          460                  71869.
 MP_Wait              1508
 MP_comm_split          12
 MP_ISend             3532                 135868.
 MP_IRecv             2892                 331541.
 MP_Recv                 4                   3360.
 -------------------------------------------------------------------------------


 -------------------------------------------------------------------------------
 -                                                                             -
 -                           R E F E R E N C E S                               -
 -                                                                             -
 -------------------------------------------------------------------------------
 
 CP2K version 7.0 (Development Version), the CP2K developers group (2018).
 CP2K is freely available from https://www.cp2k.org/ .

 Schuett, Ole; Messmer, Peter; Hutter, Juerg; VandeVondele, Joost. 
 Electronic Structure Calculations on Graphics Processing Units, John Wiley & Sons, Ltd, 173-190 (2016). 
 GPU-Accelerated Sparse Matrix-Matrix Multiplication for Linear Scaling Density Functional Theory.
 https://dx.doi.org/10.1002/9781118670712.ch8


 Del Ben, M; Schuett, O; Wentz, T; Messmer, P; Hutter, J;
 VandeVondele, J. 
 COMPUTER PHYSICS COMMUNICATIONS, 187, 120-129 (2015). 
 Enabling simulation at the fifth rung of DFT: Large scale RPA
 calculations with excellent time to solution.
 https://dx.doi.org/10.1016/j.cpc.2014.10.021


 Borstnik, U; VandeVondele, J; Weber, V; Hutter, J. 
 PARALLEL COMPUTING, 40 (5-6), 47-58 (2014). 
 Sparse matrix multiplication: The distributed block-compressed sparse
 row library.
 https://dx.doi.org/10.1016/j.parco.2014.03.012


 Hutter, J; Iannuzzi, M; Schiffmann, F; VandeVondele, J. 
 WILEY INTERDISCIPLINARY REVIEWS-COMPUTATIONAL MOLECULAR SCIENCE, 4 (1), 15-25 (2014). 
 CP2K: atomistic simulations of condensed matter systems.
 https://dx.doi.org/10.1002/wcms.1159


 Del Ben, M; Hutter, J; VandeVondele, J. 
 JOURNAL OF CHEMICAL THEORY AND COMPUTATION, 9 (6), 2654-2671 (2013). 
 Electron Correlation in the Condensed Phase from a Resolution of
 Identity Approach Based on the Gaussian and Plane Waves Scheme.
 https://dx.doi.org/10.1021/ct4002202


 Del Ben, M; Hutter, J; VandeVondele, J. 
 JOURNAL OF CHEMICAL THEORY AND COMPUTATION, 8 (11), 4177-4188 (2012). 
 Second-Order Moller-Plesset Perturbation Theory in the Condensed Phase:
 An Efficient and Massively Parallel Gaussian and Plane Waves Approach.
 https://dx.doi.org/10.1021/ct300531w


 Guidon, M; Hutter, J; VandeVondele, J. 
 JOURNAL OF CHEMICAL THEORY AND COMPUTATION, 5 (11), 3010-3021 (2009). 
 Robust Periodic Hartree-Fock Exchange for Large-Scale Simulations Using
 Gaussian Basis Sets.
 https://dx.doi.org/10.1021/ct900494g


 Guidon, M; Schiffmann, F; Hutter, J; VandeVondele, J. 
 JOURNAL OF CHEMICAL PHYSICS, 128 (21), 214104 (2008). 
 Ab initio molecular dynamics using hybrid density functionals.
 https://dx.doi.org/10.1063/1.2931945


 Frigo, M; Johnson, SG. 
 PROCEEDINGS OF THE IEEE, 93 (2), 216-231 (2005). 
 The design and implementation of FFTW3.
 https://dx.doi.org/10.1109/JPROC.2004.840301


 Lippert, G; Hutter, J; Parrinello, M. 
 THEORETICAL CHEMISTRY ACCOUNTS, 103 (2), 124-140 (1999). 
 The Gaussian and augmented-plane-wave density functional method for ab
 initio molecular dynamics simulations.
 https://dx.doi.org/10.1007/s002140050523


 Krack, M; Parrinello, M. 
 PHYSICAL CHEMISTRY CHEMICAL PHYSICS, 2 (10), 2105-2112 (2000). 
 All-electron ab-initio molecular dynamics.
 https://dx.doi.org/10.1039/b001167n


 Martyna, GJ; Tuckerman, ME. 
 JOURNAL OF CHEMICAL PHYSICS, 110 (6), 2810-2821 (1999). 
 A reciprocal space based method for treating long range interactions in
 ab initio and force-field-based calculations in clusters.
 https://dx.doi.org/10.1063/1.477923


 Perdew, JP; Burke, K; Ernzerhof, M. 
 PHYSICAL REVIEW LETTERS, 77 (18), 3865-3868 (1996). 
 Generalized gradient approximation made simple.
 https://dx.doi.org/10.1103/PhysRevLett.77.3865


 -------------------------------------------------------------------------------
 -                                                                             -
 -                                T I M I N G                                  -
 -                                                                             -
 -------------------------------------------------------------------------------
 SUBROUTINE                       CALLS  ASD         SELF TIME        TOTAL TIME
                                MAXIMUM       AVERAGE  MAXIMUM  AVERAGE  MAXIMUM
 CP2K                                 1  1.0    0.015    0.018  513.564  513.566
 qs_energies                          1  2.0    0.000    0.000  512.214  512.218
 mp2_main                             1  3.0    0.000    0.000  501.450  501.459
 mp2_gpw_main                         1  4.0    0.000    0.002  484.056  484.060
 rpa_ri_compute_en                    1  5.0    0.000    0.000  309.867  309.871
 rpa_num_int                          1  6.0    0.001    0.002  309.865  309.869
 mp2_ri_gpw_compute_in                1  5.0    0.000    0.000  171.006  174.182
 compute_low_sc_3c_integrals          1  6.0   54.168   55.525  170.196  173.371
 get_l_sq_wghts_sin_tf_t_to_w         2  7.0  140.394  142.337  142.338  142.339
 get_l_sq_wghts_cos_tf_t_to_w         2  7.0  139.607  142.275  142.302  142.304
 compute_low_sc_3c_integrals_pu   38400  7.0  115.188  119.103  115.188  119.103
 mp_sum_dm                           32  7.7    5.633   21.939    5.633   21.939
 compute_vec_Sigma_x_minus_vxc_       1  4.0    0.000    0.000   17.381   17.381
 integrate_four_center                1  5.0    0.003    0.004   16.153   16.154
 dbcsr_multiply_generic             904  9.9    0.059    0.068   13.317   15.467
 multiply_cannon                    904 10.9    0.155    0.178    9.391   13.164
 mp_comm_split_direct                 8  6.6    3.571   12.204    3.571   12.204
 GW_postprocessing                    1  7.0    0.000    0.000   11.763   11.763
 compute_self_energy_im_time_gw       1  8.0    0.005    0.007   11.737   11.738
 create_dbcsr_matrices_im_time        1  5.0    0.000    0.001    3.179   11.700
 -------------------------------------------------------------------------------

 The number of warnings for this run is : 1
 
 -------------------------------------------------------------------------------
  **** **** ******  **  PROGRAM ENDED AT                 2019-06-07 03:34:26.359
 ***** ** ***  *** **   PROGRAM RAN ON                                    tcopt4
 **    ****   ******    PROGRAM RAN BY                                   wilhelm
 ***** **    ** ** **   PROGRAM PROCESS ID                                 52755
  **** **  *******  **  PROGRAM STOPPED IN /data/wilhelm/2_job_test/11_GW100/3_c
                                           alcs/14_P2
