 DBCSR| CPU Multiplication driver                                           BLAS
 DBCSR| Multrec recursion limit                                              512
 DBCSR| Multiplication stack size                                           1000
 DBCSR| Maximum elements for images                                    UNLIMITED
 DBCSR| Multiplicative factor virtual images                                   1
 DBCSR| Use multiplication densification                                       T
 DBCSR| Multiplication size stacks                                             3
 DBCSR| Number of 3D layers                                               SINGLE
 DBCSR| Use MPI memory allocation                                              T
 DBCSR| Use RMA algorithm                                                      F
 DBCSR| Use Communication thread                                               T
 DBCSR| Communication thread load                                             87


  **** **** ******  **  PROGRAM STARTED AT               2019-05-31 16:38:56.396
 ***** ** ***  *** **   PROGRAM STARTED ON                                tcopt4
 **    ****   ******    PROGRAM STARTED BY                               wilhelm
 ***** **    ** ** **   PROGRAM PROCESS ID                                 77764
  **** **  *******  **  PROGRAM STARTED IN /data/wilhelm/2_job_test/11_GW100/3_c
                                           alcs/14_P2

 CP2K| version string:                    CP2K version 7.0 (Development Version)
 CP2K| source code revision number:                                  git:026fb12
 CP2K| cp2kflags: libint fftw3 libxc pexsi elpa=201705 parallel mpi3 scalapack q
 CP2K|            uip libderiv_max_am1=5 libint_max_am=6
 CP2K| is freely available from                            https://www.cp2k.org/
 CP2K| Program compiled at                         Sat May 11 13:15:02 CEST 2019
 CP2K| Program compiled on                                                tcopt4
 CP2K| Program compiled for                            local_valgrind_March_2019
 CP2K| Data directory path              /data/wilhelm/1_git_repository/cp2k/data
 CP2K| Input file name                                                    GW.inp

 GLOBAL| Force Environment number                                              1
 GLOBAL| Basis set file name                              BASIS_def2_QZVP_RI_ALL
 GLOBAL| Potential file name                                           POTENTIAL
 GLOBAL| MM Potential file name                                     MM_POTENTIAL
 GLOBAL| Coordinate file name                                          14_P2.xyz
 GLOBAL| Method name                                                        CP2K
 GLOBAL| Project name                                                   ALL_ELEC
 GLOBAL| Preferred FFT library                                             FFTW3
 GLOBAL| Preferred diagonalization lib.                                       SL
 GLOBAL| Run type                                                         ENERGY
 GLOBAL| All-to-all communication in single precision                          F
 GLOBAL| FFTs using library dependent lengths                                  F
 GLOBAL| Global print level                                               MEDIUM
 GLOBAL| MPI I/O enabled                                                       T
 GLOBAL| Total number of message passing processes                            40
 GLOBAL| Number of threads for this process                                    1
 GLOBAL| This output is from process                                           0
 GLOBAL| CPU model name :  Intel(R) Xeon(R) CPU E5-2697 v3 @ 2.60GHz

 MEMORY| system memory details [Kb]
 MEMORY|                        rank 0           min           max       average
 MEMORY| MemTotal            396954008     396954008     396954008     396954008
 MEMORY| MemFree             376754572     376753752     376754572     376753895
 MEMORY| Buffers                334024        334024        334024        334024
 MEMORY| Cached               15970264      15970264      15970292      15970287
 MEMORY| Slab                   600148        599972        600148        600002
 MEMORY| SReclaimable           460840        460832        460840        460833
 MEMORY| MemLikelyFree       393519700     393518900     393519700     393519040


 *** Fundamental physical constants (SI units) ***

 *** Literature: B. J. Mohr and B. N. Taylor,
 ***             CODATA recommended values of the fundamental physical
 ***             constants: 2006, Web Version 5.1
 ***             http://physics.nist.gov/constants

 Speed of light in vacuum [m/s]                             2.99792458000000E+08
 Magnetic constant or permeability of vacuum [N/A**2]       1.25663706143592E-06
 Electric constant or permittivity of vacuum [F/m]          8.85418781762039E-12
 Planck constant (h) [J*s]                                  6.62606896000000E-34
 Planck constant (h-bar) [J*s]                              1.05457162825177E-34
 Elementary charge [C]                                      1.60217648700000E-19
 Electron mass [kg]                                         9.10938215000000E-31
 Electron g factor [ ]                                     -2.00231930436220E+00
 Proton mass [kg]                                           1.67262163700000E-27
 Fine-structure constant                                    7.29735253760000E-03
 Rydberg constant [1/m]                                     1.09737315685270E+07
 Avogadro constant [1/mol]                                  6.02214179000000E+23
 Boltzmann constant [J/K]                                   1.38065040000000E-23
 Atomic mass unit [kg]                                      1.66053878200000E-27
 Bohr radius [m]                                            5.29177208590000E-11

 *** Conversion factors ***

 [u] -> [a.u.]                                              1.82288848426455E+03
 [Angstrom] -> [Bohr] = [a.u.]                              1.88972613288564E+00
 [a.u.] = [Bohr] -> [Angstrom]                              5.29177208590000E-01
 [a.u.] -> [s]                                              2.41888432650478E-17
 [a.u.] -> [fs]                                             2.41888432650478E-02
 [a.u.] -> [J]                                              4.35974393937059E-18
 [a.u.] -> [N]                                              8.23872205491840E-08
 [a.u.] -> [K]                                              3.15774647902944E+05
 [a.u.] -> [kJ/mol]                                         2.62549961709828E+03
 [a.u.] -> [kcal/mol]                                       6.27509468713739E+02
 [a.u.] -> [Pa]                                             2.94210107994716E+13
 [a.u.] -> [bar]                                            2.94210107994716E+08
 [a.u.] -> [atm]                                            2.90362800883016E+08
 [a.u.] -> [eV]                                             2.72113838565563E+01
 [a.u.] -> [Hz]                                             6.57968392072181E+15
 [a.u.] -> [1/cm] (wave numbers)                            2.19474631370540E+05
 [a.u./Bohr**2] -> [1/cm]                                   5.14048714338585E+03
 

 CELL_TOP| Volume [angstrom^3]:                                         4096.000
 CELL_TOP| Vector a [angstrom    16.000     0.000     0.000    |a| =      16.000
 CELL_TOP| Vector b [angstrom     0.000    16.000     0.000    |b| =      16.000
 CELL_TOP| Vector c [angstrom     0.000     0.000    16.000    |c| =      16.000
 CELL_TOP| Angle (b,c), alpha [degree]:                                   90.000
 CELL_TOP| Angle (a,c), beta  [degree]:                                   90.000
 CELL_TOP| Angle (a,b), gamma [degree]:                                   90.000
 CELL_TOP| Numerically orthorhombic:                                         YES

 GENERATE|  Preliminary Number of Bonds generated:                             0
 GENERATE|  Achieved consistency in connectivity generation.

 CELL| Volume [angstrom^3]:                                             4096.000
 CELL| Vector a [angstrom]:      16.000     0.000     0.000    |a| =      16.000
 CELL| Vector b [angstrom]:       0.000    16.000     0.000    |b| =      16.000
 CELL| Vector c [angstrom]:       0.000     0.000    16.000    |c| =      16.000
 CELL| Angle (b,c), alpha [degree]:                                       90.000
 CELL| Angle (a,c), beta  [degree]:                                       90.000
 CELL| Angle (a,b), gamma [degree]:                                       90.000
 CELL| Numerically orthorhombic:                                             YES

 CELL_REF| Volume [angstrom^3]:                                         4096.000
 CELL_REF| Vector a [angstrom    16.000     0.000     0.000    |a| =      16.000
 CELL_REF| Vector b [angstrom     0.000    16.000     0.000    |b| =      16.000
 CELL_REF| Vector c [angstrom     0.000     0.000    16.000    |c| =      16.000
 CELL_REF| Angle (b,c), alpha [degree]:                                   90.000
 CELL_REF| Angle (a,c), beta  [degree]:                                   90.000
 CELL_REF| Angle (a,b), gamma [degree]:                                   90.000
 CELL_REF| Numerically orthorhombic:                                         YES

 *******************************************************************************
 *******************************************************************************
 **                                                                           **
 **     #####                         ##              ##                      **
 **    ##   ##            ##          ##              ##                      **
 **   ##     ##                       ##            ######                    **
 **   ##     ##  ##   ##  ##   #####  ##  ##   ####   ##    #####    #####    **
 **   ##     ##  ##   ##  ##  ##      ## ##   ##      ##   ##   ##  ##   ##   **
 **   ##  ## ##  ##   ##  ##  ##      ####     ###    ##   ######   ######    **
 **    ##  ###   ##   ##  ##  ##      ## ##      ##   ##   ##       ##        **
 **     #######   #####   ##   #####  ##  ##  ####    ##    #####   ##        **
 **           ##                                                    ##        **
 **                                                                           **
 **                                                ... make the atoms dance   **
 **                                                                           **
 **            Copyright (C) by CP2K developers group (2000 - 2019)           **
 **                                                                           **
 *******************************************************************************

 DFT| Spin restricted Kohn-Sham (RKS) calculation                            RKS
 DFT| Multiplicity                                                             1
 DFT| Number of spin states                                                    1
 DFT| Charge                                                                   0
 DFT| Self-interaction correction (SIC)                                       NO
 DFT| Cutoffs: density                                              1.000000E-10
 DFT|          gradient                                             1.000000E-10
 DFT|          tau                                                  1.000000E-10
 DFT|          cutoff_smoothing_range                               0.000000E+00
 DFT| XC density smoothing                                                  NONE
 DFT| XC derivatives                                                          PW
 FUNCTIONAL| ROUTINE=NEW
 FUNCTIONAL| PBE:
 FUNCTIONAL| J.P.Perdew, K.Burke, M.Ernzerhof, Phys. Rev. Letter, vol. 77, n 18,
 FUNCTIONAL|  pp. 3865-3868, (1996){spin unpolarized}                           

 QS| Method:                                                                GAPW
 QS| Density plane wave grid type                        NON-SPHERICAL FULLSPACE
 QS| Number of grid levels:                                                    4
 QS| Density cutoff [a.u.]:                                                200.0
 QS| Multi grid cutoff [a.u.]: 1) grid level                               200.0
 QS|                           2) grid level                                66.7
 QS|                           3) grid level                                22.2
 QS|                           4) grid level                                 7.4
 QS| Grid level progression factor:                                          3.0
 QS| Relative density cutoff [a.u.]:                                        25.0
 QS| Consistent realspace mapping and integration 
 QS| Interaction thresholds: eps_pgf_orb:                                1.0E-05
 QS|                         eps_filter_matrix:                          0.0E+00
 QS|                         eps_core_charge:                            1.0E-12
 QS|                         eps_rho_gspace:                             1.0E-10
 QS|                         eps_rho_rspace:                             1.0E-10
 QS|                         eps_gvg_rspace:                             1.0E-05
 QS|                         eps_ppl:                                    1.0E-02
 QS|                         eps_ppnl:                                   1.0E-07
 QS| GAPW|                   eps_fit:                                    1.0E-04
 QS| GAPW|                   eps_iso:                                    1.0E-12
 QS| GAPW|                   eps_svd:                                    1.0E-08
 QS| GAPW|                   eps_cpc:                                    1.0E-10
 QS| GAPW|   atom-r-grid: quadrature:                 GC_LOG                        
 QS| GAPW|      atom-s-grid:  max l :                                          8
 QS| GAPW|      max_l_rho0 :                                                   2


 ATOMIC KIND INFORMATION

  1. Atomic kind: P                                     Number of atoms:       2

     Orbital Basis Set                                                 def2-QZVP

       Number of orbital shell sets:                                          22
       Number of orbital shells:                                              22
       Number of primitive Cartesian functions:                               41
       Number of Cartesian basis functions:                                   86
       Number of spherical basis functions:                                   70
       Norm type:                                                              2

       Normalised Cartesian orbitals:

                        Set   Shell   Orbital            Exponent    Coefficient

                          1       1    1s          1090561.713800       0.354233
                                                    163316.394610       0.662930
                                                     37166.607451       1.148249
                                                     10526.880945       1.877659
                                                      3433.997603       2.927385
                                                      1239.536048       4.335998
                                                       483.274562       5.990498
                                                       200.169116       7.350778
                                                        86.960395       7.320103
                                                        39.211283       4.901825

                          2       1    1s              336.758837       1.344521
                                                       103.721798       4.972397
                                                        39.771861       9.006443

                          3       1    1s               17.888613       6.199299

                          4       1    1s                6.964456       3.055452

                          5       1    1s                3.219809       1.713100

                          6       1    1s                1.466994       0.950017

                          7       1    1s                0.477654       0.409492

                          8       1    1s                0.216378       0.226110

                          9       1    1s                0.090236       0.117340

                         10       1    1px            2019.671137       4.421439
                                                       478.601251       6.355195
                                                       155.149425       8.430928
                                                        58.816357       9.862858
                                                        24.544513       9.802663
                                                        10.883571       7.540891
                                                         4.962479       4.124365
                                                         2.300291       1.375764
                         10       1    1py            2019.671137       4.421439
                                                       478.601251       6.355195
                                                       155.149425       8.430928
                                                        58.816357       9.862858
                                                        24.544513       9.802663
                                                        10.883571       7.540891
                                                         4.962479       4.124365
                                                         2.300291       1.375764
                         10       1    1pz            2019.671137       4.421439
                                                       478.601251       6.355195
                                                       155.149425       8.430928
                                                        58.816357       9.862858
                                                        24.544513       9.802663
                                                        10.883571       7.540891
                                                         4.962479       4.124365
                                                         2.300291       1.375764

                         11       1    1px              59.371345      14.666663
                                                         3.069459      -5.824509
                         11       1    1py              59.371345      14.666663
                                                         3.069459      -5.824509
                         11       1    1pz              59.371345      14.666663
                                                         3.069459      -5.824509

                         12       1    1px               1.063440       1.539329
                         12       1    1py               1.063440       1.539329
                         12       1    1pz               1.063440       1.539329

                         13       1    1px               0.450222       0.525682
                         13       1    1py               0.450222       0.525682
                         13       1    1pz               0.450222       0.525682

                         14       1    1px               0.182673       0.170228
                         14       1    1py               0.182673       0.170228
                         14       1    1pz               0.182673       0.170228

                         15       1    1px               0.071610       0.052803
                         15       1    1py               0.071610       0.052803
                         15       1    1pz               0.071610       0.052803

                         16       1    1dx2              3.343000      13.603420
                         16       1    1dxy              3.343000      23.561815
                         16       1    1dxz              3.343000      23.561815
                         16       1    1dy2              3.343000      13.603420
                         16       1    1dyz              3.343000      23.561815
                         16       1    1dz2              3.343000      13.603420

                         17       1    1dx2              0.807000       1.130936
                         17       1    1dxy              0.807000       1.958839
                         17       1    1dxz              0.807000       1.958839
                         17       1    1dy2              0.807000       1.130936
                         17       1    1dyz              0.807000       1.958839
                         17       1    1dz2              0.807000       1.130936

                         18       1    1dx2              0.365000       0.282112
                         18       1    1dxy              0.365000       0.488633
                         18       1    1dxz              0.365000       0.488633
                         18       1    1dy2              0.365000       0.282112
                         18       1    1dyz              0.365000       0.488633
                         18       1    1dz2              0.365000       0.282112

                         19       1    1dx2              0.154000       0.062312
                         19       1    1dxy              0.154000       0.107927
                         19       1    1dxz              0.154000       0.107927
                         19       1    1dy2              0.154000       0.062312
                         19       1    1dyz              0.154000       0.107927
                         19       1    1dz2              0.154000       0.062312

                         20       1    1fx3              0.280000       0.083958
                         20       1    1fx2y             0.280000       0.187735
                         20       1    1fx2z             0.280000       0.187735
                         20       1    1fxy2             0.280000       0.187735
                         20       1    1fxyz             0.280000       0.325166
                         20       1    1fxz2             0.280000       0.187735
                         20       1    1fy3              0.280000       0.083958
                         20       1    1fy2z             0.280000       0.187735
                         20       1    1fyz2             0.280000       0.187735
                         20       1    1fz3              0.280000       0.083958

                         21       1    1fx3              0.703000       0.666199
                         21       1    1fx2y             0.703000       1.489666
                         21       1    1fx2z             0.703000       1.489666
                         21       1    1fxy2             0.703000       1.489666
                         21       1    1fxyz             0.703000       2.580177
                         21       1    1fxz2             0.703000       1.489666
                         21       1    1fy3              0.703000       0.666199
                         21       1    1fy2z             0.703000       1.489666
                         21       1    1fyz2             0.703000       1.489666
                         21       1    1fz3              0.703000       0.666199

                         22       1    1gx4              0.597000       0.269380
                         22       1    1gx3y             0.597000       0.712712
                         22       1    1gx3z             0.597000       0.712712
                         22       1    1gx2y2            0.597000       0.920107
                         22       1    1gx2yz            0.597000       1.593672
                         22       1    1gx2z2            0.597000       0.920107
                         22       1    1gxy3             0.597000       0.712712
                         22       1    1gxy2z            0.597000       1.593672
                         22       1    1gxyz2            0.597000       1.593672
                         22       1    1gxz3             0.597000       0.712712
                         22       1    1gy4              0.597000       0.269380
                         22       1    1gy3z             0.597000       0.712712
                         22       1    1gy2z2            0.597000       0.920107
                         22       1    1gyz3             0.597000       0.712712
                         22       1    1gz4              0.597000       0.269380

     RI Auxiliary Basis Set                                                RI-5Z

       Number of orbital shell sets:                                          48
       Number of orbital shells:                                              48
       Number of primitive Cartesian functions:                               48
       Number of Cartesian basis functions:                                  335
       Number of spherical basis functions:                                  230
       Norm type:                                                              2

       Normalised Cartesian orbitals:

                        Set   Shell   Orbital            Exponent    Coefficient

                          1       1    1s              901.738000     117.279032

                          2       1    1s              197.096000      37.490260

                          3       1    1s               81.752300      19.376935

                          4       1    1s               26.055500       8.219297

                          5       1    1s               10.962400       4.293775

                          6       1    1s                4.737650       2.288665

                          7       1    1s                2.761420       1.526720

                          8       1    1s                1.228660       0.831733

                          9       1    1s                0.695379       0.542721

                         10       1    1s                0.450632       0.391991

                         11       1    1s                0.230804       0.237325

                         12       1    1s                0.133265       0.157198

                         13       1    1px             247.839000    1401.690558
                         13       1    1py             247.839000    1401.690558
                         13       1    1pz             247.839000    1401.690558

                         14       1    1px              74.952700     314.357763
                         14       1    1py              74.952700     314.357763
                         14       1    1pz              74.952700     314.357763

                         15       1    1px              26.436800      85.447861
                         15       1    1py              26.436800      85.447861
                         15       1    1pz              26.436800      85.447861

                         16       1    1px              12.270500      32.735420
                         16       1    1py              12.270500      32.735420
                         16       1    1pz              12.270500      32.735420

                         17       1    1px               5.686810      12.517742
                         17       1    1py               5.686810      12.517742
                         17       1    1pz               5.686810      12.517742

                         18       1    1px               2.784010       5.126000
                         18       1    1py               2.784010       5.126000
                         18       1    1pz               2.784010       5.126000

                         19       1    1px               1.353540       2.081033
                         19       1    1py               1.353540       2.081033
                         19       1    1pz               1.353540       2.081033

                         20       1    1px               0.837864       1.142634
                         20       1    1py               0.837864       1.142634
                         20       1    1pz               0.837864       1.142634

                         21       1    1px               0.533820       0.650405
                         21       1    1py               0.533820       0.650405
                         21       1    1pz               0.533820       0.650405

                         22       1    1px               0.344629       0.376383
                         22       1    1py               0.344629       0.376383
                         22       1    1pz               0.344629       0.376383

                         23       1    1px               0.154352       0.137905
                         23       1    1py               0.154352       0.137905
                         23       1    1pz               0.154352       0.137905

                         24       1    1dx2             74.265300    3092.323001
                         24       1    1dxy             74.265300    5356.060551
                         24       1    1dxz             74.265300    5356.060551
                         24       1    1dy2             74.265300    3092.323001
                         24       1    1dyz             74.265300    5356.060551
                         24       1    1dz2             74.265300    3092.323001

                         25       1    1dx2             23.933000     426.240245
                         25       1    1dxy             23.933000     738.269760
                         25       1    1dxz             23.933000     738.269760
                         25       1    1dy2             23.933000     426.240245
                         25       1    1dyz             23.933000     738.269760
                         25       1    1dz2             23.933000     426.240245

                         26       1    1dx2              8.160200      64.846399
                         26       1    1dxy              8.160200     112.317257
                         26       1    1dxz              8.160200     112.317257
                         26       1    1dy2              8.160200      64.846399
                         26       1    1dyz              8.160200     112.317257
                         26       1    1dz2              8.160200      64.846399

                         27       1    1dx2              4.103230      19.470617
                         27       1    1dxy              4.103230      33.724098
                         27       1    1dxz              4.103230      33.724098
                         27       1    1dy2              4.103230      19.470617
                         27       1    1dyz              4.103230      33.724098
                         27       1    1dz2              4.103230      19.470617

                         28       1    1dx2              1.563160       3.596793
                         28       1    1dxy              1.563160       6.229829
                         28       1    1dxz              1.563160       6.229829
                         28       1    1dy2              1.563160       3.596793
                         28       1    1dyz              1.563160       6.229829
                         28       1    1dz2              1.563160       3.596793

                         29       1    1dx2              0.996352       1.635430
                         29       1    1dxy              0.996352       2.832647
                         29       1    1dxz              0.996352       2.832647
                         29       1    1dy2              0.996352       1.635430
                         29       1    1dyz              0.996352       2.832647
                         29       1    1dz2              0.996352       1.635430

                         30       1    1dx2              0.569553       0.614602
                         30       1    1dxy              0.569553       1.064522
                         30       1    1dxz              0.569553       1.064522
                         30       1    1dy2              0.569553       0.614602
                         30       1    1dyz              0.569553       1.064522
                         30       1    1dz2              0.569553       0.614602

                         31       1    1dx2              0.308619       0.210329
                         31       1    1dxy              0.308619       0.364300
                         31       1    1dxz              0.308619       0.364300
                         31       1    1dy2              0.308619       0.210329
                         31       1    1dyz              0.308619       0.364300
                         31       1    1dz2              0.308619       0.210329

                         32       1    1dx2              0.166558       0.071474
                         32       1    1dxy              0.166558       0.123797
                         32       1    1dxz              0.166558       0.123797
                         32       1    1dy2              0.166558       0.071474
                         32       1    1dyz              0.166558       0.123797
                         32       1    1dz2              0.166558       0.071474

                         33       1    1fx3             15.731200     725.552124
                         33       1    1fx2y            15.731200    1622.383871
                         33       1    1fx2z            15.731200    1622.383871
                         33       1    1fxy2            15.731200    1622.383871
                         33       1    1fxyz            15.731200    2810.051294
                         33       1    1fxz2            15.731200    1622.383871
                         33       1    1fy3             15.731200     725.552124
                         33       1    1fy2z            15.731200    1622.383871
                         33       1    1fyz2            15.731200    1622.383871
                         33       1    1fz3             15.731200     725.552124

                         34       1    1fx3              7.511490     137.511228
                         34       1    1fx2y             7.511490     307.484453
                         34       1    1fx2z             7.511490     307.484453
                         34       1    1fxy2             7.511490     307.484453
                         34       1    1fxyz             7.511490     532.578695
                         34       1    1fxz2             7.511490     307.484453
                         34       1    1fy3              7.511490     137.511228
                         34       1    1fy2z             7.511490     307.484453
                         34       1    1fyz2             7.511490     307.484453
                         34       1    1fz3              7.511490     137.511228

                         35       1    1fx3              3.578070      25.921750
                         35       1    1fx2y             3.578070      57.962796
                         35       1    1fx2z             3.578070      57.962796
                         35       1    1fxy2             3.578070      57.962796
                         35       1    1fxyz             3.578070     100.394507
                         35       1    1fxz2             3.578070      57.962796
                         35       1    1fy3              3.578070      25.921750
                         35       1    1fy2z             3.578070      57.962796
                         35       1    1fyz2             3.578070      57.962796
                         35       1    1fz3              3.578070      25.921750

                         36       1    1fx3              1.337750       2.833336
                         36       1    1fx2y             1.337750       6.335532
                         36       1    1fx2z             1.337750       6.335532
                         36       1    1fxy2             1.337750       6.335532
                         36       1    1fxyz             1.337750      10.973464
                         36       1    1fxz2             1.337750       6.335532
                         36       1    1fy3              1.337750       2.833336
                         36       1    1fy2z             1.337750       6.335532
                         36       1    1fyz2             1.337750       6.335532
                         36       1    1fz3              1.337750       2.833336

                         37       1    1fx3              1.004780       1.488038
                         37       1    1fx2y             1.004780       3.327355
                         37       1    1fx2z             1.004780       3.327355
                         37       1    1fxy2             1.004780       3.327355
                         37       1    1fxyz             1.004780       5.763148
                         37       1    1fxz2             1.004780       3.327355
                         37       1    1fy3              1.004780       1.488038
                         37       1    1fy2z             1.004780       3.327355
                         37       1    1fyz2             1.004780       3.327355
                         37       1    1fz3              1.004780       1.488038

                         38       1    1fx3              0.555856       0.392753
                         38       1    1fx2y             0.555856       0.878223
                         38       1    1fx2z             0.555856       0.878223
                         38       1    1fxy2             0.555856       0.878223
                         38       1    1fxyz             0.555856       1.521126
                         38       1    1fxz2             0.555856       0.878223
                         38       1    1fy3              0.555856       0.392753
                         38       1    1fy2z             0.555856       0.878223
                         38       1    1fyz2             0.555856       0.878223
                         38       1    1fz3              0.555856       0.392753

                         39       1    1fx3              0.295632       0.094874
                         39       1    1fx2y             0.295632       0.212144
                         39       1    1fx2z             0.295632       0.212144
                         39       1    1fxy2             0.295632       0.212144
                         39       1    1fxyz             0.295632       0.367444
                         39       1    1fxz2             0.295632       0.212144
                         39       1    1fy3              0.295632       0.094874
                         39       1    1fy2z             0.295632       0.212144
                         39       1    1fyz2             0.295632       0.212144
                         39       1    1fz3              0.295632       0.094874

                         40       1    1gx4              4.797550      83.030772
                         40       1    1gx3y             4.797550     219.678774
                         40       1    1gx3z             4.797550     219.678774
                         40       1    1gx2y2            4.797550     283.604078
                         40       1    1gx2yz            4.797550     491.216673
                         40       1    1gx2z2            4.797550     283.604078
                         40       1    1gxy3             4.797550     219.678774
                         40       1    1gxy2z            4.797550     491.216673
                         40       1    1gxyz2            4.797550     491.216673
                         40       1    1gxz3             4.797550     219.678774
                         40       1    1gy4              4.797550      83.030772
                         40       1    1gy3z             4.797550     219.678774
                         40       1    1gy2z2            4.797550     283.604078
                         40       1    1gyz3             4.797550     219.678774
                         40       1    1gz4              4.797550      83.030772

                         41       1    1gx4              2.063030       8.153154
                         41       1    1gx3y             2.063030      21.571219
                         41       1    1gx3z             2.063030      21.571219
                         41       1    1gx2y2            2.063030      27.848324
                         41       1    1gx2yz            2.063030      48.234712
                         41       1    1gx2z2            2.063030      27.848324
                         41       1    1gxy3             2.063030      21.571219
                         41       1    1gxy2z            2.063030      48.234712
                         41       1    1gxyz2            2.063030      48.234712
                         41       1    1gxz3             2.063030      21.571219
                         41       1    1gy4              2.063030       8.153154
                         41       1    1gy3z             2.063030      21.571219
                         41       1    1gy2z2            2.063030      27.848324
                         41       1    1gyz3             2.063030      21.571219
                         41       1    1gz4              2.063030       8.153154

                         42       1    1gx4              1.105540       1.466443
                         42       1    1gx3y             1.105540       3.879844
                         42       1    1gx3z             1.105540       3.879844
                         42       1    1gx2y2            1.105540       5.008856
                         42       1    1gx2yz            1.105540       8.675594
                         42       1    1gx2z2            1.105540       5.008856
                         42       1    1gxy3             1.105540       3.879844
                         42       1    1gxy2z            1.105540       8.675594
                         42       1    1gxyz2            1.105540       8.675594
                         42       1    1gxz3             1.105540       3.879844
                         42       1    1gy4              1.105540       1.466443
                         42       1    1gy3z             1.105540       3.879844
                         42       1    1gy2z2            1.105540       5.008856
                         42       1    1gyz3             1.105540       3.879844
                         42       1    1gz4              1.105540       1.466443

                         43       1    1gx4              0.666541       0.364720
                         43       1    1gx3y             0.666541       0.964958
                         43       1    1gx3z             0.666541       0.964958
                         43       1    1gx2y2            0.666541       1.245755
                         43       1    1gx2yz            0.666541       2.157711
                         43       1    1gx2z2            0.666541       1.245755
                         43       1    1gxy3             0.666541       0.964958
                         43       1    1gxy2z            0.666541       2.157711
                         43       1    1gxyz2            0.666541       2.157711
                         43       1    1gxz3             0.666541       0.964958
                         43       1    1gy4              0.666541       0.364720
                         43       1    1gy3z             0.666541       0.964958
                         43       1    1gy2z2            0.666541       1.245755
                         43       1    1gyz3             0.666541       0.964958
                         43       1    1gz4              0.666541       0.364720

                         44       1    1gx4              0.340877       0.057687
                         44       1    1gx3y             0.340877       0.152626
                         44       1    1gx3z             0.340877       0.152626
                         44       1    1gx2y2            0.340877       0.197039
                         44       1    1gx2yz            0.340877       0.341282
                         44       1    1gx2z2            0.340877       0.197039
                         44       1    1gxy3             0.340877       0.152626
                         44       1    1gxy2z            0.340877       0.341282
                         44       1    1gxyz2            0.340877       0.341282
                         44       1    1gxz3             0.340877       0.152626
                         44       1    1gy4              0.340877       0.057687
                         44       1    1gy3z             0.340877       0.152626
                         44       1    1gy2z2            0.340877       0.197039
                         44       1    1gyz3             0.340877       0.152626
                         44       1    1gz4              0.340877       0.057687

                         45       1    1hx5              2.962710      25.312432
                         45       1    1hx4y             2.962710      75.937297
                         45       1    1hx4z             2.962710      75.937297
                         45       1    1hx3y2            2.962710     115.996138
                         45       1    1hx3yz            2.962710     200.911204
                         45       1    1hx3z2            2.962710     115.996138
                         45       1    1hx2y3            2.962710     115.996138
                         45       1    1hx2y2z           2.962710     259.375249
                         45       1    1hx2yz2           2.962710     259.375249
                         45       1    1hx2z3            2.962710     115.996138
                         45       1    1hxy4             2.962710      75.937297
                         45       1    1hxy3z            2.962710     200.911204
                         45       1    1hxy2z2           2.962710     259.375249
                         45       1    1hxyz3            2.962710     200.911204
                         45       1    1hxz4             2.962710      75.937297
                         45       1    1hy5              2.962710      25.312432
                         45       1    1hy4z             2.962710      75.937297
                         45       1    1hy3z2            2.962710     115.996138
                         45       1    1hy2z3            2.962710     115.996138
                         45       1    1hyz4             2.962710      75.937297
                         45       1    1hz5              2.962710      25.312432

                         46       1    1hx5              1.117250       1.063734
                         46       1    1hx4y             1.117250       3.191201
                         46       1    1hx4z             1.117250       3.191201
                         46       1    1hx3y2            1.117250       4.874639
                         46       1    1hx3yz            1.117250       8.443123
                         46       1    1hx3z2            1.117250       4.874639
                         46       1    1hx2y3            1.117250       4.874639
                         46       1    1hx2y2z           1.117250      10.900025
                         46       1    1hx2yz2           1.117250      10.900025
                         46       1    1hx2z3            1.117250       4.874639
                         46       1    1hxy4             1.117250       3.191201
                         46       1    1hxy3z            1.117250       8.443123
                         46       1    1hxy2z2           1.117250      10.900025
                         46       1    1hxyz3            1.117250       8.443123
                         46       1    1hxz4             1.117250       3.191201
                         46       1    1hy5              1.117250       1.063734
                         46       1    1hy4z             1.117250       3.191201
                         46       1    1hy3z2            1.117250       4.874639
                         46       1    1hy2z3            1.117250       4.874639
                         46       1    1hyz4             1.117250       3.191201
                         46       1    1hz5              1.117250       1.063734

                         47       1    1hx5              0.634887       0.169476
                         47       1    1hx4y             0.634887       0.508427
                         47       1    1hx4z             0.634887       0.508427
                         47       1    1hx3y2            0.634887       0.776635
                         47       1    1hx3yz            0.634887       1.345172
                         47       1    1hx3z2            0.634887       0.776635
                         47       1    1hx2y3            0.634887       0.776635
                         47       1    1hx2y2z           0.634887       1.736610
                         47       1    1hx2yz2           0.634887       1.736610
                         47       1    1hx2z3            0.634887       0.776635
                         47       1    1hxy4             0.634887       0.508427
                         47       1    1hxy3z            0.634887       1.345172
                         47       1    1hxy2z2           0.634887       1.736610
                         47       1    1hxyz3            0.634887       1.345172
                         47       1    1hxz4             0.634887       0.508427
                         47       1    1hy5              0.634887       0.169476
                         47       1    1hy4z             0.634887       0.508427
                         47       1    1hy3z2            0.634887       0.776635
                         47       1    1hy2z3            0.634887       0.776635
                         47       1    1hyz4             0.634887       0.508427
                         47       1    1hz5              0.634887       0.169476

                         48       1    1ix6              1.026470       0.493431
                         48       1    1ix5y             1.026470       1.636525
                         48       1    1ix5z             1.026470       1.636525
                         48       1    1ix4y2            1.026470       2.834544
                         48       1    1ix4yz            1.026470       4.909575
                         48       1    1ix4z2            1.026470       2.834544
                         48       1    1ix3y3            1.026470       3.353878
                         48       1    1ix3y2z           1.026470       7.499500
                         48       1    1ix3yz2           1.026470       7.499500
                         48       1    1ix3z3            1.026470       3.353878
                         48       1    1ix2y4            1.026470       2.834544
                         48       1    1ix2y3z           1.026470       7.499500
                         48       1    1ix2y2z2          1.026470       9.681812
                         48       1    1ix2yz3           1.026470       7.499500
                         48       1    1ix2z4            1.026470       2.834544
                         48       1    1ixy5             1.026470       1.636525
                         48       1    1ixy4z            1.026470       4.909575
                         48       1    1ixy3z2           1.026470       7.499500
                         48       1    1ixy2z3           1.026470       7.499500
                         48       1    1ixyz4            1.026470       4.909575
                         48       1    1ixz5             1.026470       1.636525
                         48       1    1iy6              1.026470       0.493431
                         48       1    1iy5z             1.026470       1.636525
                         48       1    1iy4z2            1.026470       2.834544
                         48       1    1iy3z3            1.026470       3.353878
                         48       1    1iy2z4            1.026470       2.834544
                         48       1    1iyz5             1.026470       1.636525
                         48       1    1iz6              1.026470       0.493431

     The atoms of this atomic kind are PAW atoms (GAPW):
       Hard Gaussian function radius:                                      1.512
       Rho0 radius:                                                        1.512
       Maximum GTO radius used for PAW projector construction:            24.566

     GAPW Soft Basis Set                                          def2-QZVP_soft

       Number of orbital shell sets:                                          22
       Number of orbital shells:                                              22
       Number of primitive Cartesian functions:                               18
       Number of Cartesian basis functions:                                   86
       Number of spherical basis functions:                                   70
       Norm type:                                                              2

       Normalised Cartesian orbitals:

                        Set   Shell   Orbital            Exponent    Coefficient

                          1       1    1s         

                          2       1    1s         

                          3       1    1s         

                          4       1    1s         

                          5       1    1s                3.219809       1.713100

                          6       1    1s                1.466994       0.950017

                          7       1    1s                0.477654       0.409492

                          8       1    1s                0.216378       0.226110

                          9       1    1s                0.090236       0.117340

                         10       1    1px               2.300291       1.375764
                         10       1    1py               2.300291       1.375764
                         10       1    1pz               2.300291       1.375764

                         11       1    1px               3.069459      -5.824509
                         11       1    1py               3.069459      -5.824509
                         11       1    1pz               3.069459      -5.824509

                         12       1    1px               1.063440       1.539329
                         12       1    1py               1.063440       1.539329
                         12       1    1pz               1.063440       1.539329

                         13       1    1px               0.450222       0.525682
                         13       1    1py               0.450222       0.525682
                         13       1    1pz               0.450222       0.525682

                         14       1    1px               0.182673       0.170228
                         14       1    1py               0.182673       0.170228
                         14       1    1pz               0.182673       0.170228

                         15       1    1px               0.071610       0.052803
                         15       1    1py               0.071610       0.052803
                         15       1    1pz               0.071610       0.052803

                         16       1    1dx2              3.343000      13.603420
                         16       1    1dxy              3.343000      23.561815
                         16       1    1dxz              3.343000      23.561815
                         16       1    1dy2              3.343000      13.603420
                         16       1    1dyz              3.343000      23.561815
                         16       1    1dz2              3.343000      13.603420

                         17       1    1dx2              0.807000       1.130936
                         17       1    1dxy              0.807000       1.958839
                         17       1    1dxz              0.807000       1.958839
                         17       1    1dy2              0.807000       1.130936
                         17       1    1dyz              0.807000       1.958839
                         17       1    1dz2              0.807000       1.130936

                         18       1    1dx2              0.365000       0.282112
                         18       1    1dxy              0.365000       0.488633
                         18       1    1dxz              0.365000       0.488633
                         18       1    1dy2              0.365000       0.282112
                         18       1    1dyz              0.365000       0.488633
                         18       1    1dz2              0.365000       0.282112

                         19       1    1dx2              0.154000       0.062312
                         19       1    1dxy              0.154000       0.107927
                         19       1    1dxz              0.154000       0.107927
                         19       1    1dy2              0.154000       0.062312
                         19       1    1dyz              0.154000       0.107927
                         19       1    1dz2              0.154000       0.062312

                         20       1    1fx3              0.280000       0.083958
                         20       1    1fx2y             0.280000       0.187735
                         20       1    1fx2z             0.280000       0.187735
                         20       1    1fxy2             0.280000       0.187735
                         20       1    1fxyz             0.280000       0.325166
                         20       1    1fxz2             0.280000       0.187735
                         20       1    1fy3              0.280000       0.083958
                         20       1    1fy2z             0.280000       0.187735
                         20       1    1fyz2             0.280000       0.187735
                         20       1    1fz3              0.280000       0.083958

                         21       1    1fx3              0.703000       0.666199
                         21       1    1fx2y             0.703000       1.489666
                         21       1    1fx2z             0.703000       1.489666
                         21       1    1fxy2             0.703000       1.489666
                         21       1    1fxyz             0.703000       2.580177
                         21       1    1fxz2             0.703000       1.489666
                         21       1    1fy3              0.703000       0.666199
                         21       1    1fy2z             0.703000       1.489666
                         21       1    1fyz2             0.703000       1.489666
                         21       1    1fz3              0.703000       0.666199

                         22       1    1gx4              0.597000       0.269380
                         22       1    1gx3y             0.597000       0.712712
                         22       1    1gx3z             0.597000       0.712712
                         22       1    1gx2y2            0.597000       0.920107
                         22       1    1gx2yz            0.597000       1.593672
                         22       1    1gx2z2            0.597000       0.920107
                         22       1    1gxy3             0.597000       0.712712
                         22       1    1gxy2z            0.597000       1.593672
                         22       1    1gxyz2            0.597000       1.593672
                         22       1    1gxz3             0.597000       0.712712
                         22       1    1gy4              0.597000       0.269380
                         22       1    1gy3z             0.597000       0.712712
                         22       1    1gy2z2            0.597000       0.920107
                         22       1    1gyz3             0.597000       0.712712
                         22       1    1gz4              0.597000       0.269380

     AE Potential information for                                            ALL

       Description:                                       All-electron potential
                                          Krack, Parrinello, PCCP 2, 2105 (2000)

       Gaussian exponent of the core charge distribution:               2.704164
       Electronic configuration (s p d ...):                           6   9   0


 MOLECULE KIND INFORMATION


 All atoms are their own molecule, skipping detailed information


 TOTAL NUMBERS AND MAXIMUM NUMBERS

  Total number of            - Atomic kinds:                                   1
                             - Atoms:                                          2
                             - Shell sets:                                    44
                             - Shells:                                        44
                             - Primitive Cartesian functions:                 82
                             - Cartesian basis functions:                    172
                             - Spherical basis functions:                    140

  Maximum angular momentum of the orbital basis functions:                     4


 MODULE QUICKSTEP:  ATOMIC COORDINATES IN angstrom

  Atom  Kind  Element       X           Y           Z          Z(eff)       Mass

       1     1 P   15    8.000000    8.000000    7.053450     15.00      30.9738
       2     1 P   15    8.000000    8.000000    8.946550     15.00      30.9738




 SCF PARAMETERS         Density guess:                                   RESTART
                        --------------------------------------------------------
                        max_scf:                                             200
                        max_scf_history:                                       0
                        max_diis:                                              4
                        --------------------------------------------------------
                        eps_scf:                                        1.00E-06
                        eps_scf_history:                                0.00E+00
                        eps_diis:                                       1.00E-01
                        eps_eigval:                                     1.00E-05
                        --------------------------------------------------------
                        level_shift [a.u.]:                                 0.00
                        --------------------------------------------------------
                        Mixing method:                           DIRECT_P_MIXING
                        --------------------------------------------------------
                        No outer SCF

 PW_GRID| Information for grid number                                          1
 PW_GRID| Grid distributed over                                    40 processors
 PW_GRID| Real space group dimensions                                    40    1
 PW_GRID| the grid is blocked:                                                NO
 PW_GRID| Cutoff [a.u.]                                                    400.0
 PW_GRID| spherical cutoff:                                                   NO
 PW_GRID|   Bounds   1           -144     143                Points:         288
 PW_GRID|   Bounds   2           -144     143                Points:         288
 PW_GRID|   Bounds   3           -144     143                Points:         288
 PW_GRID| Volume element (a.u.^3)  0.1157E-02     Volume (a.u.^3)     27641.1785
 PW_GRID| Grid span                                                    FULLSPACE
 PW_GRID|   Distribution                         Average         Max         Min
 PW_GRID|   G-Vectors                           597196.8      597312      597024
 PW_GRID|   G-Rays                                2073.6        2074        2073
 PW_GRID|   Real Space Points                   597196.8      663552      580608

 PW_GRID| Information for grid number                                          2
 PW_GRID| Grid distributed over                                    40 processors
 PW_GRID| Real space group dimensions                                    40    1
 PW_GRID| the grid is blocked:                                                NO
 PW_GRID| Cutoff [a.u.]                                                    200.0
 PW_GRID| spherical cutoff:                                                   NO
 PW_GRID|   Bounds   1           -100      99                Points:         200
 PW_GRID|   Bounds   2           -100      99                Points:         200
 PW_GRID|   Bounds   3           -100      99                Points:         200
 PW_GRID| Volume element (a.u.^3)  0.3455E-02     Volume (a.u.^3)     27641.1785
 PW_GRID| Grid span                                                    FULLSPACE
 PW_GRID|   Distribution                         Average         Max         Min
 PW_GRID|   G-Vectors                           200000.0      200600      199600
 PW_GRID|   G-Rays                                1000.0        1003         998
 PW_GRID|   Real Space Points                   200000.0      200000      200000

 PW_GRID| Information for grid number                                          3
 PW_GRID| Grid distributed over                                    40 processors
 PW_GRID| Real space group dimensions                                    40    1
 PW_GRID| the grid is blocked:                                                NO
 PW_GRID| Cutoff [a.u.]                                                     66.7
 PW_GRID| spherical cutoff:                                                   NO
 PW_GRID|   Bounds   1            -60      59                Points:         120
 PW_GRID|   Bounds   2            -60      59                Points:         120
 PW_GRID|   Bounds   3            -60      59                Points:         120
 PW_GRID| Volume element (a.u.^3)  0.1600E-01     Volume (a.u.^3)     27641.1785
 PW_GRID| Grid span                                                    FULLSPACE
 PW_GRID|   Distribution                         Average         Max         Min
 PW_GRID|   G-Vectors                            43200.0       43560       42960
 PW_GRID|   G-Rays                                 360.0         363         358
 PW_GRID|   Real Space Points                    43200.0       43200       43200

 PW_GRID| Information for grid number                                          4
 PW_GRID| Grid distributed over                                    40 processors
 PW_GRID| Real space group dimensions                                    40    1
 PW_GRID| the grid is blocked:                                                NO
 PW_GRID| Cutoff [a.u.]                                                     22.2
 PW_GRID| spherical cutoff:                                                   NO
 PW_GRID|   Bounds   1            -36      35                Points:          72
 PW_GRID|   Bounds   2            -36      35                Points:          72
 PW_GRID|   Bounds   3            -36      35                Points:          72
 PW_GRID| Volume element (a.u.^3)  0.7406E-01     Volume (a.u.^3)     27641.1785
 PW_GRID| Grid span                                                    FULLSPACE
 PW_GRID|   Distribution                         Average         Max         Min
 PW_GRID|   G-Vectors                             9331.2        9432        9288
 PW_GRID|   G-Rays                                 129.6         131         129
 PW_GRID|   Real Space Points                     9331.2       10368        5184

 PW_GRID| Information for grid number                                          5
 PW_GRID| Grid distributed over                                    40 processors
 PW_GRID| Real space group dimensions                                    40    1
 PW_GRID| the grid is blocked:                                                NO
 PW_GRID| Cutoff [a.u.]                                                      7.4
 PW_GRID| spherical cutoff:                                                   NO
 PW_GRID|   Bounds   1            -20      19                Points:          40
 PW_GRID|   Bounds   2            -20      19                Points:          40
 PW_GRID|   Bounds   3            -20      19                Points:          40
 PW_GRID| Volume element (a.u.^3)  0.4319         Volume (a.u.^3)     27641.1785
 PW_GRID| Grid span                                                    FULLSPACE
 PW_GRID|   Distribution                         Average         Max         Min
 PW_GRID|   G-Vectors                             1600.0        1720        1520
 PW_GRID|   G-Rays                                  40.0          43          38
 PW_GRID|   Real Space Points                     1600.0        1600        1600

 POISSON| Solver                                          Martyna-Tuckerman (MT)
 POISSON| MT| Alpha                                                        7.000
 POISSON| MT| Relative cutoff                                                2.0
 POISSON| Periodicity                                                       NONE

 RS_GRID| Information for grid number                                          2
 RS_GRID|   Bounds   1           -100      99                Points:         200
 RS_GRID|   Bounds   2           -100      99                Points:         200
 RS_GRID|   Bounds   3           -100      99                Points:         200
 RS_GRID| Real space distribution over                                  2 groups
 RS_GRID| Real space distribution along direction                              1
 RS_GRID| Border size                                                         23
 RS_GRID| Real space distribution over                                  4 groups
 RS_GRID| Real space distribution along direction                              2
 RS_GRID| Border size                                                         23
 RS_GRID| Real space distribution over                                  5 groups
 RS_GRID| Real space distribution along direction                              3
 RS_GRID| Border size                                                         23
 RS_GRID|   Distribution                         Average         Max         Min
 RS_GRID|   Planes                                 146.0         146         146
 RS_GRID|   Distribution                         Average         Max         Min
 RS_GRID|   Planes                                  96.0          96          96
 RS_GRID|   Distribution                         Average         Max         Min
 RS_GRID|   Planes                                  86.0          86          86

 RS_GRID| Information for grid number                                          3
 RS_GRID|   Bounds   1            -60      59                Points:         120
 RS_GRID|   Bounds   2            -60      59                Points:         120
 RS_GRID|   Bounds   3            -60      59                Points:         120
 RS_GRID| Real space distribution over                                  2 groups
 RS_GRID| Real space distribution along direction                              1
 RS_GRID| Border size                                                         26
 RS_GRID| Real space distribution over                                  4 groups
 RS_GRID| Real space distribution along direction                              2
 RS_GRID| Border size                                                         26
 RS_GRID| Real space distribution over                                  5 groups
 RS_GRID| Real space distribution along direction                              3
 RS_GRID| Border size                                                         26
 RS_GRID|   Distribution                         Average         Max         Min
 RS_GRID|   Planes                                 112.0         112         112
 RS_GRID|   Distribution                         Average         Max         Min
 RS_GRID|   Planes                                  82.0          82          82
 RS_GRID|   Distribution                         Average         Max         Min
 RS_GRID|   Planes                                  76.0          76          76

 RS_GRID| Information for grid number                                          4
 RS_GRID|   Bounds   1            -36      35                Points:          72
 RS_GRID|   Bounds   2            -36      35                Points:          72
 RS_GRID|   Bounds   3            -36      35                Points:          72
 RS_GRID| Real space fully replicated
 RS_GRID| Group size                                                           1

 RS_GRID| Information for grid number                                          5
 RS_GRID|   Bounds   1            -20      19                Points:          40
 RS_GRID|   Bounds   2            -20      19                Points:          40
 RS_GRID|   Bounds   3            -20      19                Points:          40
 RS_GRID| Real space fully replicated
 RS_GRID| Group size                                                           1
 
 RI-RPA| using GPW style
 

  HFX_INFO| Replica ID:                                                        1
  HFX_INFO| EPS_SCHWARZ:                                                 2.0E-17
  HFX_INFO| EPS_SCHWARZ_FORCES                                           1.0E-06
  HFX_INFO| EPS_STORAGE_SCALING:                                         1.0E+00
  HFX_INFO| NBINS:                                                            64
  HFX_INFO| BLOCK_SIZE:                                                        1
  HFX_INFO| FRACTION:                                               1.0000000000
  HFX_INFO| Interaction Potential:                                       COULOMB
  HFX_INFO| Number of periodic shells considered:                           NONE
  HFX_INFO| Number of periodic cells considered:                            NONE


 Number of electrons:                                                         30
 Number of occupied orbitals:                                                 15
 Number of molecular orbitals:                                                15

 Number of orbital functions:                                                140
 Number of independent orbital functions:                                    140

 Extrapolation method: initial_guess


 SCF WAVEFUNCTION OPTIMIZATION

  Step     Update method      Time    Convergence         Total energy    Change
  ------------------------------------------------------------------------------
     1 P_Mix/Diag. 0.40E+00    1.9     0.00000046      -682.4237051768 -6.82E+02

  *** SCF run converged in     1 steps ***


  Electronic density on regular grids:        -15.3297307561       14.6702692439
  Core density on regular grids:               30.0000000000        0.0000000000
  Hard and soft densities (Lebedev):          -35.2155377799      -20.5452686150
  Total Rho_soft + Rho1_hard - Rho1_soft      -29.9999999210
  Total charge density (r-space):               0.0000000790
  Total Rho_soft + Rho0_soft (g-space):        -0.0000001090

  Overlap energy of the core charge distribution:               0.00000025360289
  Self energy of the core charge distribution:               -295.21547976336092
  Core Hamiltonian energy:                                   -387.71239277487683
  Hartree energy:                                              43.09780015493277
  Exchange-correlation energy:                                 -7.74959498026012

  GAPW| Exc from hard and soft atomic rho1:                   -38.35459814493061
  GAPW| local Eh = 1 center integrals:                          3.51056007810128

  Total energy:                                              -682.42370517679149

 !-----------------------------------------------------------------------------!
                     Mulliken Population Analysis

 #  Atom  Element  Kind  Atomic population                           Net charge
       1     P        1         15.000000                             -0.000000
       2     P        1         15.000000                              0.000000
 # Total charge                             30.000000                 -0.000000

 !-----------------------------------------------------------------------------!

 !-----------------------------------------------------------------------------!
                           Hirshfeld Charges

  #Atom  Element  Kind  Ref Charge     Population                    Net charge
      1       P      1      15.000         14.999                         0.001
      2       P      1      15.000         14.999                         0.001

  Total Charge                                                            0.002
 !-----------------------------------------------------------------------------!


 RI-RPA section
 --------------

  Used number of processes per group:                                          1
  Maximum allowed memory usage per MPI processes:                     200.00 MiB

  HFX_MEM_INFO| Est. max. program size before HFX [MiB]:                     316
  HFX_MEM_INFO| Number of cart. primitive ERI's calculated:           1189709972
  HFX_MEM_INFO| Number of sph. ERI's calculated:                       143710463
  HFX_MEM_INFO| Number of sph. ERI's stored in-core:                   143710463
  HFX_MEM_INFO| Number of sph. ERI's stored on disk:                           0
  HFX_MEM_INFO| Number of sph. ERI's calculated on the fly:                    0
  HFX_MEM_INFO| Total memory consumption ERI's RAM [MiB]:                    815
  HFX_MEM_INFO| Whereof max-vals [MiB]:                                        2
  HFX_MEM_INFO| Total compression factor ERI's RAM:                         1.35
  HFX_MEM_INFO| Total memory consumption ERI's disk [MiB]:                     0
  HFX_MEM_INFO| Total compression factor ERI's disk:                        0.00
  HFX_MEM_INFO| Size of density/Fock matrix [MiB]:                             0
  HFX_MEM_INFO| Size of buffers [MiB]:                                         0
  HFX_MEM_INFO| Est. max. program size after HFX  [MiB]:                     446

  GPW_INFO| Density cutoff [a.u.]:                                         150.0
  GPW_INFO| Relative density cutoff [a.u.]:                                 25.0
  RI_INFO| Cholesky decomposition group size:                                 40
  RI_INFO| Number of groups for auxiliary basis functions                     40
  RI_INFO| Occupied  basis set size:                                          15
  RI_INFO| Virtual   basis set size:                                         125
  RI_INFO| Auxiliary basis set size:                                         460
  RI_INFO| Total memory for (ia|K) integrals:                           6.58 MiB
  RI_INFO| Group size for frequency integration:                              40
  INTEG_INFO| MINIMAX quadrature
  INTEG_INFO| Number of integration points:                                   14
  INTEG_INFO| Number of integration points per RPA group:                     14
  MATRIX_INFO| Number row processes:                                          10
  MATRIX_INFO| Number column processes:                                        4
  MATRIX_INFO| Row block size:                                                93
  MATRIX_INFO| Column block size:                                             57
 Emin =  0.13633411542782004      Emax =   456.60932698587288      Range =   3349.1934542797362     
  INTEG_INFO| Range for the minimax approximation:                     3349.1935
[...]
  SPARSITY_INFO| Eps filter for imaginary time:                         1.00E-30
  SPARSITY_INFO| Second eps filter for imaginary time:                  1.00E-30
  RPA_IM_TIME_INFO| Number of periodic images T for Chi_PQ^T(it):              1
  RPA_IM_TIME_INFO| Number of periodic images T for Chi_PQ^T(it):              1
  RPA_IM_TIME_INFO| Number of periodic images T for Chi_PQ^T(it):              1
  RPA_IM_TIME_INFO| Number of periodic images T for Chi_PQ^T(it):              1
  RPA_IM_TIME_INFO| Number of periodic images T for Chi_PQ^T(it):              1
  RPA_IM_TIME_INFO| Number of periodic images T for Chi_PQ^T(it):              1
  RPA_IM_TIME_INFO| Number of periodic images T for Chi_PQ^T(it):              1
  RPA_IM_TIME_INFO| Number of periodic images T for Chi_PQ^T(it):              1
  RPA_IM_TIME_INFO| Number of periodic images T for Chi_PQ^T(it):              1
  RPA_IM_TIME_INFO| Number of periodic images T for Chi_PQ^T(it):              1
  RPA_IM_TIME_INFO| Number of periodic images T for Chi_PQ^T(it):              1
  RPA_IM_TIME_INFO| Number of periodic images T for Chi_PQ^T(it):              1
  RPA_IM_TIME_INFO| Number of periodic images T for Chi_PQ^T(it):              1
  RPA_IM_TIME_INFO| Number of periodic images T for Chi_PQ^T(it):              1
  
  GW quasiparticle energies
  -------------------------
   
  The GW quasiparticle energies are calculated according to: 
  E_GW = E_SCF + Z * ( Sigc(E_SCF) + Sigx - vxc )
   
  The energy unit of the following table is eV.  Sigc_fit is a very conservative
  estimate of the statistical error of the fitting.
   
            MO      E_SCF       Sigc   Sigc_fit   Sigx-vxc          Z       E_GW
     6 ( occ )   -123.602      8.715      0.000    -22.820      1.000   -137.706
     7 ( occ )   -123.596      9.021      0.000    -22.818      1.000   -137.393
     8 ( occ )   -123.596      9.021      0.000    -22.818      1.000   -137.393
     9 ( occ )   -123.485      8.423      0.000    -22.992      1.000   -138.054
    10 ( occ )   -123.426      9.969      0.000    -22.986      1.000   -136.443
    11 ( occ )    -16.897      3.142      0.000     -7.291      1.000    -21.046
    12 ( occ )    -11.516      2.126      0.000     -4.654      1.000    -14.044
    13 ( occ )     -7.182      0.211      0.000     -3.401      1.000    -10.371
    14 ( occ )     -7.113     -0.409      0.000     -2.661      1.000    -10.183
    15 ( occ )     -7.113     -0.409      0.000     -2.661      1.000    -10.183
    16 ( vir )     -3.403     -1.716      0.000      4.379      1.000     -0.741
    17 ( vir )     -3.403     -1.716      0.000      4.379      1.000     -0.741
    18 ( vir )      0.393     -1.516      0.000      3.596      1.000      2.473
    19 ( vir )      1.872     -1.691      0.000      3.992      1.000      4.174
    20 ( vir )      2.710     -1.354      0.000      3.498      1.000      4.854
    21 ( vir )      2.710     -1.354      0.000      3.498      1.000      4.854
    22 ( vir )      3.209     -1.371      0.000      3.118      1.000      4.956
    23 ( vir )      3.261     -2.172      0.000      4.729      1.000      5.818
    24 ( vir )      3.261     -2.172      0.000      4.729      1.000      5.818
    25 ( vir )      3.357     -2.096      0.000      4.246      1.000      5.507
   
  GW HOMO-LUMO gap (eV)                                                     9.44
  

  Total RI-RPA Time=                                                   34.132320
  RI-RPA energy  =                                             -1.10568454902654

  Total EXX Time=                                                      15.192349
  EXX energy  =                                               -45.15088385150149

 ENERGY| Total FORCE_EVAL ( QS ) energy (a.u.):             -682.576079142031062


 -------------------------------------------------------------------------------
 -                                                                             -
 -                                DBCSR STATISTICS                             -
 -                                                                             -
 -------------------------------------------------------------------------------
 COUNTER                                    TOTAL       BLAS       SMM       ACC
 flops    70 x    15 x    70               588000     100.0%      0.0%      0.0%
 flops    70 x    70 x    15               882000     100.0%      0.0%      0.0%
 flops    70 x    70 x    70              2744000     100.0%      0.0%      0.0%
 flops   140 x   140 x    70              5488000     100.0%      0.0%      0.0%
 flops   230 x   230 x   230           2725408000     100.0%      0.0%      0.0%
 flops   460 x   140 x    70          10097920000     100.0%      0.0%      0.0%
 flops   460 x   140 x   230          16589440000     100.0%      0.0%      0.0%
 flops    70 x   770 x    70          34409760000     100.0%      0.0%      0.0%
 flops    70 x   840 x    70          37537920000     100.0%      0.0%      0.0%
 flops   230 x   230 x   476          56404096000     100.0%      0.0%      0.0%
 flops   230 x   230 x   504          59721984000     100.0%      0.0%      0.0%
 flops inhomo. stacks                           0       0.0%      0.0%      0.0%
 flops total                       217.496230E+09     100.0%      0.0%      0.0%
 flops max/rank                     34.285465E+09     100.0%      0.0%      0.0%
 matmuls inhomo. stacks                         0       0.0%      0.0%      0.0%
 matmuls total                              13168     100.0%      0.0%      0.0%
 number of processed stacks                  3436     100.0%      0.0%      0.0%
 average stack size                                     3.8       0.0       0.0
 marketing flops                   218.746749E+09
 -------------------------------------------------------------------------------
 # multiplications                            902
 max memory usage/rank             560.680960E+06
 # max total images/rank                        5
 # max 3D layers                                1
 # MPI messages exchanged                 1133880
 MPI messages size (bytes):
  total size                         7.848439E+09
  min size                           0.000000E+00
  max size                         846.400000E+03
  average size                       6.921755E+03
 MPI breakdown and total messages size (bytes):
             size <=      128             1113288                        0
       128 < size <=     8192                   0                        0
      8192 < size <=    32768                  30                   453600
     32768 < size <=   131072                3426                268363200
    131072 < size <=  4194304               17136               7579622400
   4194304 < size <= 16777216                   0                        0
  16777216 < size                               0                        0
 -------------------------------------------------------------------------------

 *** WARNING in dbcsr_mm.F:278 :: Using a non-square number of MPI ranks ***
 *** might lead to poor performance. Used ranks: 40 Suggested: 36 81     ***

 -------------------------------------------------------------------------------
 -                                                                             -
 -                      DBCSR MESSAGE PASSING PERFORMANCE                      -
 -                                                                             -
 -------------------------------------------------------------------------------

 ROUTINE             CALLS      AVE VOLUME [Bytes]
 MP_Group               26
 MP_Bcast               12                     12.
 MP_Allreduce         5095                      8.
 MP_Alltoall          2596                  71726.
 MP_Wait             62880
 MP_ISend            60302                  17354.
 MP_IRecv            60302                     61.
 MP_Memory           93570
 -------------------------------------------------------------------------------


 MEMORY| Estimated peak process memory [MiB]                                 535

 -------------------------------------------------------------------------------
 ----                             MULTIGRID INFO                            ----
 -------------------------------------------------------------------------------
 count for grid        1:         243585          cutoff [a.u.]          200.00
 count for grid        2:          20010          cutoff [a.u.]           66.67
 count for grid        3:          16575          cutoff [a.u.]           22.22
 count for grid        4:           4042          cutoff [a.u.]            7.41
 total gridlevel count  :         284212

 -------------------------------------------------------------------------------
 -                                                                             -
 -                         MESSAGE PASSING PERFORMANCE                         -
 -                                                                             -
 -------------------------------------------------------------------------------

 ROUTINE             CALLS      AVE VOLUME [Bytes]
 MP_Group                5
 MP_Bcast              130                2288536.
 MP_Allreduce          348                  53260.
 MP_Sync                72
 MP_Alltoall           123                2327230.
 MP_ISendRecv          468                  51685.
 MP_Wait              1118
 MP_comm_split          10
 MP_ISend             4984                  75407.
 MP_IRecv             3898                 298255.
 MP_Recv                 7                   2240.
 -------------------------------------------------------------------------------


 -------------------------------------------------------------------------------
 -                                                                             -
 -                           R E F E R E N C E S                               -
 -                                                                             -
 -------------------------------------------------------------------------------
 
 CP2K version 7.0 (Development Version), the CP2K developers group (2018).
 CP2K is freely available from https://www.cp2k.org/ .

 Schuett, Ole; Messmer, Peter; Hutter, Juerg; VandeVondele, Joost. 
 Electronic Structure Calculations on Graphics Processing Units, John Wiley & Sons, Ltd, 173-190 (2016). 
 GPU-Accelerated Sparse Matrix-Matrix Multiplication for Linear Scaling Density Functional Theory.
 https://dx.doi.org/10.1002/9781118670712.ch8


 Del Ben, M; Schuett, O; Wentz, T; Messmer, P; Hutter, J;
 VandeVondele, J. 
 COMPUTER PHYSICS COMMUNICATIONS, 187, 120-129 (2015). 
 Enabling simulation at the fifth rung of DFT: Large scale RPA
 calculations with excellent time to solution.
 https://dx.doi.org/10.1016/j.cpc.2014.10.021


 Borstnik, U; VandeVondele, J; Weber, V; Hutter, J. 
 PARALLEL COMPUTING, 40 (5-6), 47-58 (2014). 
 Sparse matrix multiplication: The distributed block-compressed sparse
 row library.
 https://dx.doi.org/10.1016/j.parco.2014.03.012


 Hutter, J; Iannuzzi, M; Schiffmann, F; VandeVondele, J. 
 WILEY INTERDISCIPLINARY REVIEWS-COMPUTATIONAL MOLECULAR SCIENCE, 4 (1), 15-25 (2014). 
 CP2K: atomistic simulations of condensed matter systems.
 https://dx.doi.org/10.1002/wcms.1159


 Del Ben, M; Hutter, J; VandeVondele, J. 
 JOURNAL OF CHEMICAL THEORY AND COMPUTATION, 9 (6), 2654-2671 (2013). 
 Electron Correlation in the Condensed Phase from a Resolution of
 Identity Approach Based on the Gaussian and Plane Waves Scheme.
 https://dx.doi.org/10.1021/ct4002202


 Del Ben, M; Hutter, J; VandeVondele, J. 
 JOURNAL OF CHEMICAL THEORY AND COMPUTATION, 8 (11), 4177-4188 (2012). 
 Second-Order Moller-Plesset Perturbation Theory in the Condensed Phase:
 An Efficient and Massively Parallel Gaussian and Plane Waves Approach.
 https://dx.doi.org/10.1021/ct300531w


 Guidon, M; Hutter, J; VandeVondele, J. 
 JOURNAL OF CHEMICAL THEORY AND COMPUTATION, 5 (11), 3010-3021 (2009). 
 Robust Periodic Hartree-Fock Exchange for Large-Scale Simulations Using
 Gaussian Basis Sets.
 https://dx.doi.org/10.1021/ct900494g


 Guidon, M; Schiffmann, F; Hutter, J; VandeVondele, J. 
 JOURNAL OF CHEMICAL PHYSICS, 128 (21), 214104 (2008). 
 Ab initio molecular dynamics using hybrid density functionals.
 https://dx.doi.org/10.1063/1.2931945


 Frigo, M; Johnson, SG. 
 PROCEEDINGS OF THE IEEE, 93 (2), 216-231 (2005). 
 The design and implementation of FFTW3.
 https://dx.doi.org/10.1109/JPROC.2004.840301


 Lippert, G; Hutter, J; Parrinello, M. 
 THEORETICAL CHEMISTRY ACCOUNTS, 103 (2), 124-140 (1999). 
 The Gaussian and augmented-plane-wave density functional method for ab
 initio molecular dynamics simulations.
 https://dx.doi.org/10.1007/s002140050523


 Krack, M; Parrinello, M. 
 PHYSICAL CHEMISTRY CHEMICAL PHYSICS, 2 (10), 2105-2112 (2000). 
 All-electron ab-initio molecular dynamics.
 https://dx.doi.org/10.1039/b001167n


 Martyna, GJ; Tuckerman, ME. 
 JOURNAL OF CHEMICAL PHYSICS, 110 (6), 2810-2821 (1999). 
 A reciprocal space based method for treating long range interactions in
 ab initio and force-field-based calculations in clusters.
 https://dx.doi.org/10.1063/1.477923


 Perdew, JP; Burke, K; Ernzerhof, M. 
 PHYSICAL REVIEW LETTERS, 77 (18), 3865-3868 (1996). 
 Generalized gradient approximation made simple.
 https://dx.doi.org/10.1103/PhysRevLett.77.3865


 -------------------------------------------------------------------------------
 -                                                                             -
 -                                T I M I N G                                  -
 -                                                                             -
 -------------------------------------------------------------------------------
 SUBROUTINE                       CALLS  ASD         SELF TIME        TOTAL TIME
                                MAXIMUM       AVERAGE  MAXIMUM  AVERAGE  MAXIMUM
 CP2K                                 1  1.0    0.015    0.018   53.264   53.265
 qs_energies                          1  2.0    0.000    0.000   52.242   52.243
 mp2_main                             1  3.0    0.000    0.000   49.339   49.342
 mp2_gpw_main                         1  4.0    0.000    0.001   34.132   34.133
 rpa_ri_compute_en                    1  5.0    0.000    0.000   21.639   21.640
 rpa_num_int                          1  6.0    0.001    0.002   21.636   21.638
 compute_vec_Sigma_x_minus_vxc_       1  4.0    0.000    0.000   15.192   15.192
 integrate_four_center                1  5.0    0.007    0.011   14.290   14.294
 mp2_ri_gpw_compute_in                1  5.0    0.000    0.000    9.378   12.485
 compute_3c_overlap_int               1  6.0    3.014    4.979    8.998   12.102
 dbcsr_multiply_generic             902  9.9    0.048    0.052    9.006   11.094
 multiply_cannon                    902 10.9    0.151    0.168    6.169    9.475
 GW_postprocessing                    1  7.0    0.000    0.002    9.237    9.239
 compute_self_energy_im_time_gw       1  8.0    0.002    0.003    9.237    9.237
 mp_sync                             72  8.7    6.639    8.006    6.639    8.006
 compute_3c_overlap_int_put_dbc   23040  7.0    5.787    7.440    5.787    7.440
 mp_waitall_1                     63542 13.4    3.578    7.237    3.578    7.237
 integrate_four_center_main           1  6.0    0.000    0.000    0.969    7.135
 integrate_four_center_bin          128  7.0    0.969    7.135    0.969    7.135
 multiply_cannon_metrocomm3       17223 11.9    0.024    0.028    2.863    7.099
 multiply_cannon_multrec          17223 11.9    1.122    6.065    1.592    6.090
 multiply_cannon_metrocomm1       17223 11.9    0.011    0.014    0.591    5.604
 mp_comm_split_direct                 8  6.6    3.313    5.442    3.313    5.442
 create_dbcsr_matrices_im_time        1  5.0    0.001    0.001    3.112    5.395
 compute_self_energy_im_time_gw     280  9.0    0.001    0.002    3.770    5.075
 calc_screening_functions             1  6.0    2.717    3.131    4.434    4.951
 mp_sum_d                          1041  6.5    2.191    4.308    2.191    4.308
 rpa_num_int_im_t_alloc_mat_gw        1  7.0    0.000    0.000    0.152    4.175
 allocate_matrices_gw_im_time         1  8.0    0.000    0.000    0.152    4.175
 get_mat_3c_overl_int_gw              1  9.0    0.001    0.001    0.151    4.175
 fill_mat_3c_overl_int_gw             1 10.0    0.000    0.000    0.131    4.155
 rpa_num_int_im_t_alloc_mat_24        1  7.0    0.000    0.000    4.031    4.143
 cp_fm_copy_general                   2  8.0    0.000    0.000    4.029    4.141
 cp_fm_start_copy_general             2  9.0    0.001    0.002    4.029    4.140
 mp_allgather_i                       4 10.0    4.028    4.139    4.028    4.139
 GW3c_fill_mat                        1 11.0    0.047    1.894    0.103    4.121
 dbcsr_trace_a_b_d                  563 10.0    0.003    0.063    1.939    4.020
 compute_self_energy_im_time_gw     280  9.0    0.001    0.001    1.914    3.996
 compute_mat_P_omega                  1  7.0    0.000    0.000    3.874    3.875
 mp_sum_l                          4470 10.9    2.027    3.664    2.027    3.664
 powell_optimize                 649112  7.0    2.767    3.125    2.767    3.125
 qs_ks_build_kohn_sham_matrix         2  6.0    0.001    0.001    2.740    2.746
 calc_pair_dist_radii                 1  6.0    0.979    1.426    2.029    2.626
 mp_sum_dm                           18  7.6    1.637    2.401    1.637    2.401
 compute_mat_P_omega_calc_P          14  8.0    0.000    0.000    1.957    2.330
 scf_env_do_scf                       1  3.0    0.000    0.000    2.236    2.236
 scf_env_do_scf_inner_loop            1  4.0    0.000    0.001    2.236    2.236
 compute_self_energy_im_time_gw     280  9.0    0.001    0.001    1.452    2.084
 compute_self_energy_im_time_gw     280  9.0    0.001    0.002    2.025    2.045
 qs_ks_update_qs_env                  1  5.0    0.000    0.000    1.855    1.858
 rebuild_ks_matrix                    1  6.0    0.000    0.000    1.855    1.858
 make_m2s                          1804 10.9    0.039    0.042    1.281    1.641
 pw_transfer                         39  8.7    0.003    0.004    1.352    1.415
 fft_wrap_pw1pw2                     31 10.0    0.000    0.001    1.323    1.381
 get_l_sq_wghts_cos_tf_t_to_w         1  7.0    0.518    1.359    1.358    1.360
 integrate_four_center_load           1  6.0    0.000    0.000    0.667    1.306
 hfx_load_balance                     1  7.0    0.000    0.000    0.667    1.306
 make_images                       1804 11.9    0.055    0.060    1.095    1.237
 rs_pw_transfer                      22  8.7    0.001    0.001    1.158    1.237
 get_l_sq_wghts_cos_tf_w_to_t         1  7.0    0.507    1.223    1.225    1.226
 mp_sum_dv                           40  8.0    0.786    1.214    0.786    1.214
 get_l_sq_wghts_sin_tf_t_to_w         1  7.0    0.509    1.210    1.210    1.213
 dbcsr_iterator_start           1298912 12.1    0.032    0.955    0.039    1.188
 hfx_load_balance_range               1  8.0    0.003    0.065    0.543    1.182
 fft_wrap_pw1pw2_200                 18 10.9    0.088    0.102    1.054    1.104
 -------------------------------------------------------------------------------

 The number of warnings for this run is : 2
 
 -------------------------------------------------------------------------------
  **** **** ******  **  PROGRAM ENDED AT                 2019-05-31 16:39:49.941
 ***** ** ***  *** **   PROGRAM RAN ON                                    tcopt4
 **    ****   ******    PROGRAM RAN BY                                   wilhelm
 ***** **    ** ** **   PROGRAM PROCESS ID                                 77764
  **** **  *******  **  PROGRAM STOPPED IN /data/wilhelm/2_job_test/11_GW100/3_c
                                           alcs/14_P2
