 DBCSR| CPU Multiplication driver                                           BLAS
 DBCSR| Multrec recursion limit                                              512
 DBCSR| Multiplication stack size                                           1000
 DBCSR| Maximum elements for images                                    UNLIMITED
 DBCSR| Multiplicative factor virtual images                                   1
 DBCSR| Use multiplication densification                                       T
 DBCSR| Multiplication size stacks                                             3
 DBCSR| Number of 3D layers                                               SINGLE
 DBCSR| Use MPI memory allocation                                              T
 DBCSR| Use RMA algorithm                                                      F
 DBCSR| Use Communication thread                                               T
 DBCSR| Communication thread load                                             87


  **** **** ******  **  PROGRAM STARTED AT               2019-05-31 17:17:44.856
 ***** ** ***  *** **   PROGRAM STARTED ON                                tcopt4
 **    ****   ******    PROGRAM STARTED BY                               wilhelm
 ***** **    ** ** **   PROGRAM PROCESS ID                                 83246
  **** **  *******  **  PROGRAM STARTED IN /data/wilhelm/2_job_test/11_GW100/3_c
                                           alcs/54_LiF

 CP2K| version string:                    CP2K version 7.0 (Development Version)
 CP2K| source code revision number:                                  git:026fb12
 CP2K| cp2kflags: libint fftw3 libxc pexsi elpa=201705 parallel mpi3 scalapack q
 CP2K|            uip libderiv_max_am1=5 libint_max_am=6
 CP2K| is freely available from                            https://www.cp2k.org/
 CP2K| Program compiled at                         Sat May 11 13:15:02 CEST 2019
 CP2K| Program compiled on                                                tcopt4
 CP2K| Program compiled for                            local_valgrind_March_2019
 CP2K| Data directory path              /data/wilhelm/1_git_repository/cp2k/data
 CP2K| Input file name                                                    GW.inp

 GLOBAL| Force Environment number                                              1
 GLOBAL| Basis set file name                              BASIS_def2_QZVP_RI_ALL
 GLOBAL| Potential file name                                           POTENTIAL
 GLOBAL| MM Potential file name                                     MM_POTENTIAL
 GLOBAL| Coordinate file name                                         54_LiF.xyz
 GLOBAL| Method name                                                        CP2K
 GLOBAL| Project name                                                   ALL_ELEC
 GLOBAL| Preferred FFT library                                             FFTW3
 GLOBAL| Preferred diagonalization lib.                                       SL
 GLOBAL| Run type                                                         ENERGY
 GLOBAL| All-to-all communication in single precision                          F
 GLOBAL| FFTs using library dependent lengths                                  F
 GLOBAL| Global print level                                               MEDIUM
 GLOBAL| MPI I/O enabled                                                       T
 GLOBAL| Total number of message passing processes                            40
 GLOBAL| Number of threads for this process                                    1
 GLOBAL| This output is from process                                           0
 GLOBAL| CPU model name :  Intel(R) Xeon(R) CPU E5-2697 v3 @ 2.60GHz

 MEMORY| system memory details [Kb]
 MEMORY|                        rank 0           min           max       average
 MEMORY| MemTotal            396954008     396954008     396954008     396954008
 MEMORY| MemFree             376701492     376701492     376701492     376701492
 MEMORY| Buffers                337004        337004        337004        337004
 MEMORY| Cached               16026836      16026836      16026836      16026836
 MEMORY| Slab                   604644        604644        604644        604644
 MEMORY| SReclaimable           464884        464884        464884        464884
 MEMORY| MemLikelyFree       393530216     393530216     393530216     393530216


 *** Fundamental physical constants (SI units) ***

 *** Literature: B. J. Mohr and B. N. Taylor,
 ***             CODATA recommended values of the fundamental physical
 ***             constants: 2006, Web Version 5.1
 ***             http://physics.nist.gov/constants

 Speed of light in vacuum [m/s]                             2.99792458000000E+08
 Magnetic constant or permeability of vacuum [N/A**2]       1.25663706143592E-06
 Electric constant or permittivity of vacuum [F/m]          8.85418781762039E-12
 Planck constant (h) [J*s]                                  6.62606896000000E-34
 Planck constant (h-bar) [J*s]                              1.05457162825177E-34
 Elementary charge [C]                                      1.60217648700000E-19
 Electron mass [kg]                                         9.10938215000000E-31
 Electron g factor [ ]                                     -2.00231930436220E+00
 Proton mass [kg]                                           1.67262163700000E-27
 Fine-structure constant                                    7.29735253760000E-03
 Rydberg constant [1/m]                                     1.09737315685270E+07
 Avogadro constant [1/mol]                                  6.02214179000000E+23
 Boltzmann constant [J/K]                                   1.38065040000000E-23
 Atomic mass unit [kg]                                      1.66053878200000E-27
 Bohr radius [m]                                            5.29177208590000E-11

 *** Conversion factors ***

 [u] -> [a.u.]                                              1.82288848426455E+03
 [Angstrom] -> [Bohr] = [a.u.]                              1.88972613288564E+00
 [a.u.] = [Bohr] -> [Angstrom]                              5.29177208590000E-01
 [a.u.] -> [s]                                              2.41888432650478E-17
 [a.u.] -> [fs]                                             2.41888432650478E-02
 [a.u.] -> [J]                                              4.35974393937059E-18
 [a.u.] -> [N]                                              8.23872205491840E-08
 [a.u.] -> [K]                                              3.15774647902944E+05
 [a.u.] -> [kJ/mol]                                         2.62549961709828E+03
 [a.u.] -> [kcal/mol]                                       6.27509468713739E+02
 [a.u.] -> [Pa]                                             2.94210107994716E+13
 [a.u.] -> [bar]                                            2.94210107994716E+08
 [a.u.] -> [atm]                                            2.90362800883016E+08
 [a.u.] -> [eV]                                             2.72113838565563E+01
 [a.u.] -> [Hz]                                             6.57968392072181E+15
 [a.u.] -> [1/cm] (wave numbers)                            2.19474631370540E+05
 [a.u./Bohr**2] -> [1/cm]                                   5.14048714338585E+03
 

 CELL_TOP| Volume [angstrom^3]:                                         4096.000
 CELL_TOP| Vector a [angstrom    16.000     0.000     0.000    |a| =      16.000
 CELL_TOP| Vector b [angstrom     0.000    16.000     0.000    |b| =      16.000
 CELL_TOP| Vector c [angstrom     0.000     0.000    16.000    |c| =      16.000
 CELL_TOP| Angle (b,c), alpha [degree]:                                   90.000
 CELL_TOP| Angle (a,c), beta  [degree]:                                   90.000
 CELL_TOP| Angle (a,b), gamma [degree]:                                   90.000
 CELL_TOP| Numerically orthorhombic:                                         YES

 GENERATE|  Preliminary Number of Bonds generated:                             0
 GENERATE|  Achieved consistency in connectivity generation.

 CELL| Volume [angstrom^3]:                                             4096.000
 CELL| Vector a [angstrom]:      16.000     0.000     0.000    |a| =      16.000
 CELL| Vector b [angstrom]:       0.000    16.000     0.000    |b| =      16.000
 CELL| Vector c [angstrom]:       0.000     0.000    16.000    |c| =      16.000
 CELL| Angle (b,c), alpha [degree]:                                       90.000
 CELL| Angle (a,c), beta  [degree]:                                       90.000
 CELL| Angle (a,b), gamma [degree]:                                       90.000
 CELL| Numerically orthorhombic:                                             YES

 CELL_REF| Volume [angstrom^3]:                                         4096.000
 CELL_REF| Vector a [angstrom    16.000     0.000     0.000    |a| =      16.000
 CELL_REF| Vector b [angstrom     0.000    16.000     0.000    |b| =      16.000
 CELL_REF| Vector c [angstrom     0.000     0.000    16.000    |c| =      16.000
 CELL_REF| Angle (b,c), alpha [degree]:                                   90.000
 CELL_REF| Angle (a,c), beta  [degree]:                                   90.000
 CELL_REF| Angle (a,b), gamma [degree]:                                   90.000
 CELL_REF| Numerically orthorhombic:                                         YES

 *******************************************************************************
 *******************************************************************************
 **                                                                           **
 **     #####                         ##              ##                      **
 **    ##   ##            ##          ##              ##                      **
 **   ##     ##                       ##            ######                    **
 **   ##     ##  ##   ##  ##   #####  ##  ##   ####   ##    #####    #####    **
 **   ##     ##  ##   ##  ##  ##      ## ##   ##      ##   ##   ##  ##   ##   **
 **   ##  ## ##  ##   ##  ##  ##      ####     ###    ##   ######   ######    **
 **    ##  ###   ##   ##  ##  ##      ## ##      ##   ##   ##       ##        **
 **     #######   #####   ##   #####  ##  ##  ####    ##    #####   ##        **
 **           ##                                                    ##        **
 **                                                                           **
 **                                                ... make the atoms dance   **
 **                                                                           **
 **            Copyright (C) by CP2K developers group (2000 - 2019)           **
 **                                                                           **
 *******************************************************************************

 DFT| Spin restricted Kohn-Sham (RKS) calculation                            RKS
 DFT| Multiplicity                                                             1
 DFT| Number of spin states                                                    1
 DFT| Charge                                                                   0
 DFT| Self-interaction correction (SIC)                                       NO
 DFT| Cutoffs: density                                              1.000000E-10
 DFT|          gradient                                             1.000000E-10
 DFT|          tau                                                  1.000000E-10
 DFT|          cutoff_smoothing_range                               0.000000E+00
 DFT| XC density smoothing                                                  NONE
 DFT| XC derivatives                                                          PW
 FUNCTIONAL| ROUTINE=NEW
 FUNCTIONAL| PBE:
 FUNCTIONAL| J.P.Perdew, K.Burke, M.Ernzerhof, Phys. Rev. Letter, vol. 77, n 18,
 FUNCTIONAL|  pp. 3865-3868, (1996){spin unpolarized}                           

 QS| Method:                                                                GAPW
 QS| Density plane wave grid type                        NON-SPHERICAL FULLSPACE
 QS| Number of grid levels:                                                    4
 QS| Density cutoff [a.u.]:                                                200.0
 QS| Multi grid cutoff [a.u.]: 1) grid level                               200.0
 QS|                           2) grid level                                66.7
 QS|                           3) grid level                                22.2
 QS|                           4) grid level                                 7.4
 QS| Grid level progression factor:                                          3.0
 QS| Relative density cutoff [a.u.]:                                        25.0
 QS| Consistent realspace mapping and integration 
 QS| Interaction thresholds: eps_pgf_orb:                                1.0E-05
 QS|                         eps_filter_matrix:                          0.0E+00
 QS|                         eps_core_charge:                            1.0E-12
 QS|                         eps_rho_gspace:                             1.0E-10
 QS|                         eps_rho_rspace:                             1.0E-10
 QS|                         eps_gvg_rspace:                             1.0E-05
 QS|                         eps_ppl:                                    1.0E-02
 QS|                         eps_ppnl:                                   1.0E-07
 QS| GAPW|                   eps_fit:                                    1.0E-04
 QS| GAPW|                   eps_iso:                                    1.0E-12
 QS| GAPW|                   eps_svd:                                    1.0E-08
 QS| GAPW|                   eps_cpc:                                    1.0E-10
 QS| GAPW|   atom-r-grid: quadrature:                 GC_LOG                        
 QS| GAPW|      atom-s-grid:  max l :                                          8
 QS| GAPW|      max_l_rho0 :                                                   2


 ATOMIC KIND INFORMATION

  1. Atomic kind: Li                                    Number of atoms:       1

     Orbital Basis Set                                                 def2-QZVP

       Number of orbital shell sets:                                          13
       Number of orbital shells:                                              13
       Number of primitive Cartesian functions:                               24
       Number of Cartesian basis functions:                                   40
       Number of spherical basis functions:                                   35
       Norm type:                                                              2

       Normalised Cartesian orbitals:

                        Set   Shell   Orbital            Exponent    Coefficient

                          1       1    1s            14853.977085       0.046759
                                                      2225.223648       0.087614
                                                       504.887390       0.151822
                                                       142.458475       0.246528
                                                        46.315600       0.374141
                                                        16.655335       0.514324
                                                         6.433119       0.600678
                                                         2.602704       0.544460
                                                         1.089725       0.321097

                          2       1    1s                4.423660       0.272734
                                                         1.235639       0.753703

                          3       1    1s                0.460675       0.398525

                          4       1    1s                0.096617       0.123510

                          5       1    1s                0.045915       0.070693

                          6       1    1s                0.021140       0.039513

                          7       1    1px               3.260511       0.222231
                                                         0.650030       0.162952
                                                         0.169417       0.133843
                          7       1    1py               3.260511       0.222231
                                                         0.650030       0.162952
                                                         0.169417       0.133843
                          7       1    1pz               3.260511       0.222231
                                                         0.650030       0.162952
                                                         0.169417       0.133843

                          8       1    1px               0.055732       0.038599
                          8       1    1py               0.055732       0.038599
                          8       1    1pz               0.055732       0.038599

                          9       1    1px               0.020490       0.011050
                          9       1    1py               0.020490       0.011050
                          9       1    1pz               0.020490       0.011050

                         10       1    1px               3.327000       6.404808
                         10       1    1py               3.327000       6.404808
                         10       1    1pz               3.327000       6.404808

                         11       1    1dx2              0.230000       0.125728
                         11       1    1dxy              0.230000       0.217768
                         11       1    1dxz              0.230000       0.217768
                         11       1    1dy2              0.230000       0.125728
                         11       1    1dyz              0.230000       0.217768
                         11       1    1dz2              0.230000       0.125728

                         12       1    1dx2              0.075700       0.017982
                         12       1    1dxy              0.075700       0.031145
                         12       1    1dxz              0.075700       0.031145
                         12       1    1dy2              0.075700       0.017982
                         12       1    1dyz              0.075700       0.031145
                         12       1    1dz2              0.075700       0.017982

                         13       1    1fx3              0.135000       0.016263
                         13       1    1fx2y             0.135000       0.036366
                         13       1    1fx2z             0.135000       0.036366
                         13       1    1fxy2             0.135000       0.036366
                         13       1    1fxyz             0.135000       0.062987
                         13       1    1fxz2             0.135000       0.036366
                         13       1    1fy3              0.135000       0.016263
                         13       1    1fy2z             0.135000       0.036366
                         13       1    1fyz2             0.135000       0.036366
                         13       1    1fz3              0.135000       0.016263

     RI Auxiliary Basis Set                                                RI-5Z

       Number of orbital shell sets:                                          39
       Number of orbital shells:                                              39
       Number of primitive Cartesian functions:                               39
       Number of Cartesian basis functions:                                  287
       Number of spherical basis functions:                                  193
       Norm type:                                                              2

       Normalised Cartesian orbitals:

                        Set   Shell   Orbital            Exponent    Coefficient

                          1       1    1s              115.553000      25.118634

                          2       1    1s               24.228600       7.783167

                          3       1    1s                7.795370       3.324969

                          4       1    1s                2.891360       1.580290

                          5       1    1s                1.423940       0.929028

                          6       1    1s                0.705917       0.548877

                          7       1    1s                0.380123       0.345027

                          8       1    1s                0.246901       0.249633

                          9       1    1s                0.123532       0.148506

                         10       1    1s                0.064288       0.090993

                         11       1    1px              20.093900      60.641563
                         11       1    1py              20.093900      60.641563
                         11       1    1pz              20.093900      60.641563

                         12       1    1px               6.081490      13.612960
                         12       1    1py               6.081490      13.612960
                         12       1    1pz               6.081490      13.612960

                         13       1    1px               2.347260       4.141347
                         13       1    1py               2.347260       4.141347
                         13       1    1pz               2.347260       4.141347

                         14       1    1px               1.029950       1.478973
                         14       1    1py               1.029950       1.478973
                         14       1    1pz               1.029950       1.478973

                         15       1    1px               0.520190       0.629713
                         15       1    1py               0.520190       0.629713
                         15       1    1pz               0.520190       0.629713

                         16       1    1px               0.223276       0.218772
                         16       1    1py               0.223276       0.218772
                         16       1    1pz               0.223276       0.218772

                         17       1    1px               0.121261       0.101998
                         17       1    1py               0.121261       0.101998
                         17       1    1pz               0.121261       0.101998

                         18       1    1px               0.072777       0.053881
                         18       1    1py               0.072777       0.053881
                         18       1    1pz               0.072777       0.053881

                         19       1    1dx2              6.963580      49.132227
                         19       1    1dxy              6.963580      85.099514
                         19       1    1dxz              6.963580      85.099514
                         19       1    1dy2              6.963580      49.132227
                         19       1    1dyz              6.963580      85.099514
                         19       1    1dz2              6.963580      49.132227

                         20       1    1dx2              2.681530       9.248666
                         20       1    1dxy              2.681530      16.019160
                         20       1    1dxz              2.681530      16.019160
                         20       1    1dy2              2.681530       9.248666
                         20       1    1dyz              2.681530      16.019160
                         20       1    1dz2              2.681530       9.248666

                         21       1    1dx2              1.351630       2.788757
                         21       1    1dxy              1.351630       4.830269
                         21       1    1dxz              1.351630       4.830269
                         21       1    1dy2              1.351630       2.788757
                         21       1    1dyz              1.351630       4.830269
                         21       1    1dz2              1.351630       2.788757

                         22       1    1dx2              0.771893       1.046247
                         22       1    1dxy              0.771893       1.812154
                         22       1    1dxz              0.771893       1.812154
                         22       1    1dy2              0.771893       1.046247
                         22       1    1dyz              0.771893       1.812154
                         22       1    1dz2              0.771893       1.046247

                         23       1    1dx2              0.339644       0.248715
                         23       1    1dxy              0.339644       0.430786
                         23       1    1dxz              0.339644       0.430786
                         23       1    1dy2              0.339644       0.248715
                         23       1    1dyz              0.339644       0.430786
                         23       1    1dz2              0.339644       0.248715

                         24       1    1dx2              0.173452       0.076731
                         24       1    1dxy              0.173452       0.132903
                         24       1    1dxz              0.173452       0.132903
                         24       1    1dy2              0.173452       0.076731
                         24       1    1dyz              0.173452       0.132903
                         24       1    1dz2              0.173452       0.076731

                         25       1    1dx2              0.101078       0.029823
                         25       1    1dxy              0.101078       0.051656
                         25       1    1dxz              0.101078       0.051656
                         25       1    1dy2              0.101078       0.029823
                         25       1    1dyz              0.101078       0.051656
                         25       1    1dz2              0.101078       0.029823

                         26       1    1fx3              3.229490      20.582865
                         26       1    1fx2y             3.229490      46.024685
                         26       1    1fx2z             3.229490      46.024685
                         26       1    1fxy2             3.229490      46.024685
                         26       1    1fxyz             3.229490      79.717093
                         26       1    1fxz2             3.229490      46.024685
                         26       1    1fy3              3.229490      20.582865
                         26       1    1fy2z             3.229490      46.024685
                         26       1    1fyz2             3.229490      46.024685
                         26       1    1fz3              3.229490      20.582865

                         27       1    1fx3              1.349290       2.888626
                         27       1    1fx2y             1.349290       6.459165
                         27       1    1fx2z             1.349290       6.459165
                         27       1    1fxy2             1.349290       6.459165
                         27       1    1fxyz             1.349290      11.187602
                         27       1    1fxz2             1.349290       6.459165
                         27       1    1fy3              1.349290       2.888626
                         27       1    1fy2z             1.349290       6.459165
                         27       1    1fyz2             1.349290       6.459165
                         27       1    1fz3              1.349290       2.888626

                         28       1    1fx3              0.764640       0.804883
                         28       1    1fx2y             0.764640       1.799773
                         28       1    1fx2z             0.764640       1.799773
                         28       1    1fxy2             0.764640       1.799773
                         28       1    1fxyz             0.764640       3.117298
                         28       1    1fxz2             0.764640       1.799773
                         28       1    1fy3              0.764640       0.804883
                         28       1    1fy2z             0.764640       1.799773
                         28       1    1fyz2             0.764640       1.799773
                         28       1    1fz3              0.764640       0.804883

                         29       1    1fx3              0.415519       0.204072
                         29       1    1fx2y             0.415519       0.456319
                         29       1    1fx2z             0.415519       0.456319
                         29       1    1fxy2             0.415519       0.456319
                         29       1    1fxyz             0.415519       0.790368
                         29       1    1fxz2             0.415519       0.456319
                         29       1    1fy3              0.415519       0.204072
                         29       1    1fy2z             0.415519       0.456319
                         29       1    1fyz2             0.415519       0.456319
                         29       1    1fz3              0.415519       0.204072

                         30       1    1fx3              0.259280       0.070621
                         30       1    1fx2y             0.259280       0.157914
                         30       1    1fx2z             0.259280       0.157914
                         30       1    1fxy2             0.259280       0.157914
                         30       1    1fxyz             0.259280       0.273515
                         30       1    1fxz2             0.259280       0.157914
                         30       1    1fy3              0.259280       0.070621
                         30       1    1fy2z             0.259280       0.157914
                         30       1    1fyz2             0.259280       0.157914
                         30       1    1fz3              0.259280       0.070621

                         31       1    1fx3              0.156013       0.022520
                         31       1    1fx2y             0.156013       0.050356
                         31       1    1fx2z             0.156013       0.050356
                         31       1    1fxy2             0.156013       0.050356
                         31       1    1fxyz             0.156013       0.087219
                         31       1    1fxz2             0.156013       0.050356
                         31       1    1fy3              0.156013       0.022520
                         31       1    1fy2z             0.156013       0.050356
                         31       1    1fyz2             0.156013       0.050356
                         31       1    1fz3              0.156013       0.022520

                         32       1    1gx4              1.819640       5.772919
                         32       1    1gx3y             1.819640      15.273709
                         32       1    1gx3z             1.819640      15.273709
                         32       1    1gx2y2            1.819640      19.718273
                         32       1    1gx2yz            1.819640      34.153051
                         32       1    1gx2z2            1.819640      19.718273
                         32       1    1gxy3             1.819640      15.273709
                         32       1    1gxy2z            1.819640      34.153051
                         32       1    1gxyz2            1.819640      34.153051
                         32       1    1gxz3             1.819640      15.273709
                         32       1    1gy4              1.819640       5.772919
                         32       1    1gy3z             1.819640      15.273709
                         32       1    1gy2z2            1.819640      19.718273
                         32       1    1gyz3             1.819640      15.273709
                         32       1    1gz4              1.819640       5.772919

                         33       1    1gx4              0.856517       0.726874
                         33       1    1gx3y             0.856517       1.923129
                         33       1    1gx3z             0.856517       1.923129
                         33       1    1gx2y2            0.856517       2.482749
                         33       1    1gx2yz            0.856517       4.300247
                         33       1    1gx2z2            0.856517       2.482749
                         33       1    1gxy3             0.856517       1.923129
                         33       1    1gxy2z            0.856517       4.300247
                         33       1    1gxyz2            0.856517       4.300247
                         33       1    1gxz3             0.856517       1.923129
                         33       1    1gy4              0.856517       0.726874
                         33       1    1gy3z             0.856517       1.923129
                         33       1    1gy2z2            0.856517       2.482749
                         33       1    1gyz3             0.856517       1.923129
                         33       1    1gz4              0.856517       0.726874

                         34       1    1gx4              0.434910       0.112729
                         34       1    1gx3y             0.434910       0.298252
                         34       1    1gx3z             0.434910       0.298252
                         34       1    1gx2y2            0.434910       0.385041
                         34       1    1gx2yz            0.434910       0.666911
                         34       1    1gx2z2            0.434910       0.385041
                         34       1    1gxy3             0.434910       0.298252
                         34       1    1gxy2z            0.434910       0.666911
                         34       1    1gxyz2            0.434910       0.666911
                         34       1    1gxz3             0.434910       0.298252
                         34       1    1gy4              0.434910       0.112729
                         34       1    1gy3z             0.434910       0.298252
                         34       1    1gy2z2            0.434910       0.385041
                         34       1    1gyz3             0.434910       0.298252
                         34       1    1gz4              0.434910       0.112729

                         35       1    1gx4              0.196188       0.012627
                         35       1    1gx3y             0.196188       0.033407
                         35       1    1gx3z             0.196188       0.033407
                         35       1    1gx2y2            0.196188       0.043128
                         35       1    1gx2yz            0.196188       0.074700
                         35       1    1gx2z2            0.196188       0.043128
                         35       1    1gxy3             0.196188       0.033407
                         35       1    1gxy2z            0.196188       0.074700
                         35       1    1gxyz2            0.196188       0.074700
                         35       1    1gxz3             0.196188       0.033407
                         35       1    1gy4              0.196188       0.012627
                         35       1    1gy3z             0.196188       0.033407
                         35       1    1gy2z2            0.196188       0.043128
                         35       1    1gyz3             0.196188       0.033407
                         35       1    1gz4              0.196188       0.012627

                         36       1    1hx5              1.185280       1.289028
                         36       1    1hx4y             1.185280       3.867083
                         36       1    1hx4z             1.185280       3.867083
                         36       1    1hx3y2            1.185280       5.907067
                         36       1    1hx3yz            1.185280      10.231341
                         36       1    1hx3z2            1.185280       5.907067
                         36       1    1hx2y3            1.185280       5.907067
                         36       1    1hx2y2z           1.185280      13.208604
                         36       1    1hx2yz2           1.185280      13.208604
                         36       1    1hx2z3            1.185280       5.907067
                         36       1    1hxy4             1.185280       3.867083
                         36       1    1hxy3z            1.185280      10.231341
                         36       1    1hxy2z2           1.185280      13.208604
                         36       1    1hxyz3            1.185280      10.231341
                         36       1    1hxz4             1.185280       3.867083
                         36       1    1hy5              1.185280       1.289028
                         36       1    1hy4z             1.185280       3.867083
                         36       1    1hy3z2            1.185280       5.907067
                         36       1    1hy2z3            1.185280       5.907067
                         36       1    1hyz4             1.185280       3.867083
                         36       1    1hz5              1.185280       1.289028

                         37       1    1hx5              0.598672       0.140026
                         37       1    1hx4y             0.598672       0.420078
                         37       1    1hx4z             0.598672       0.420078
                         37       1    1hx3y2            0.598672       0.641679
                         37       1    1hx3yz            0.598672       1.111421
                         37       1    1hx3z2            0.598672       0.641679
                         37       1    1hx2y3            0.598672       0.641679
                         37       1    1hx2y2z           0.598672       1.434838
                         37       1    1hx2yz2           0.598672       1.434838
                         37       1    1hx2z3            0.598672       0.641679
                         37       1    1hxy4             0.598672       0.420078
                         37       1    1hxy3z            0.598672       1.111421
                         37       1    1hxy2z2           0.598672       1.434838
                         37       1    1hxyz3            0.598672       1.111421
                         37       1    1hxz4             0.598672       0.420078
                         37       1    1hy5              0.598672       0.140026
                         37       1    1hy4z             0.598672       0.420078
                         37       1    1hy3z2            0.598672       0.641679
                         37       1    1hy2z3            0.598672       0.641679
                         37       1    1hyz4             0.598672       0.420078
                         37       1    1hz5              0.598672       0.140026

                         38       1    1hx5              0.427119       0.046733
                         38       1    1hx4y             0.427119       0.140200
                         38       1    1hx4z             0.427119       0.140200
                         38       1    1hx3y2            0.427119       0.214160
                         38       1    1hx3yz            0.427119       0.370935
                         38       1    1hx3z2            0.427119       0.214160
                         38       1    1hx2y3            0.427119       0.214160
                         38       1    1hx2y2z           0.427119       0.478876
                         38       1    1hx2yz2           0.427119       0.478876
                         38       1    1hx2z3            0.427119       0.214160
                         38       1    1hxy4             0.427119       0.140200
                         38       1    1hxy3z            0.427119       0.370935
                         38       1    1hxy2z2           0.427119       0.478876
                         38       1    1hxyz3            0.427119       0.370935
                         38       1    1hxz4             0.427119       0.140200
                         38       1    1hy5              0.427119       0.046733
                         38       1    1hy4z             0.427119       0.140200
                         38       1    1hy3z2            0.427119       0.214160
                         38       1    1hy2z3            0.427119       0.214160
                         38       1    1hyz4             0.427119       0.140200
                         38       1    1hz5              0.427119       0.046733

                         39       1    1ix6              0.598672       0.065334
                         39       1    1ix5y             0.598672       0.216687
                         39       1    1ix5z             0.598672       0.216687
                         39       1    1ix4y2            0.598672       0.375313
                         39       1    1ix4yz            0.598672       0.650061
                         39       1    1ix4z2            0.598672       0.375313
                         39       1    1ix3y3            0.598672       0.444076
                         39       1    1ix3y2z           0.598672       0.992984
                         39       1    1ix3yz2           0.598672       0.992984
                         39       1    1ix3z3            0.598672       0.444076
                         39       1    1ix2y4            0.598672       0.375313
                         39       1    1ix2y3z           0.598672       0.992984
                         39       1    1ix2y2z2          0.598672       1.281937
                         39       1    1ix2yz3           0.598672       0.992984
                         39       1    1ix2z4            0.598672       0.375313
                         39       1    1ixy5             0.598672       0.216687
                         39       1    1ixy4z            0.598672       0.650061
                         39       1    1ixy3z2           0.598672       0.992984
                         39       1    1ixy2z3           0.598672       0.992984
                         39       1    1ixyz4            0.598672       0.650061
                         39       1    1ixz5             0.598672       0.216687
                         39       1    1iy6              0.598672       0.065334
                         39       1    1iy5z             0.598672       0.216687
                         39       1    1iy4z2            0.598672       0.375313
                         39       1    1iy3z3            0.598672       0.444076
                         39       1    1iy2z4            0.598672       0.375313
                         39       1    1iyz5             0.598672       0.216687
                         39       1    1iz6              0.598672       0.065334

     The atoms of this atomic kind are PAW atoms (GAPW):
       Hard Gaussian function radius:                                      1.512
       Rho0 radius:                                                        1.512
       Maximum GTO radius used for PAW projector construction:            24.566

     GAPW Soft Basis Set                                          def2-QZVP_soft

       Number of orbital shell sets:                                          13
       Number of orbital shells:                                              13
       Number of primitive Cartesian functions:                               16
       Number of Cartesian basis functions:                                   40
       Number of spherical basis functions:                                   35
       Norm type:                                                              2

       Normalised Cartesian orbitals:

                        Set   Shell   Orbital            Exponent    Coefficient

                          1       1    1s                2.602704       0.544460
                                                         1.089725       0.321097

                          2       1    1s                1.235639       0.753703

                          3       1    1s                0.460675       0.398525

                          4       1    1s                0.096617       0.123510

                          5       1    1s                0.045915       0.070693

                          6       1    1s                0.021140       0.039513

                          7       1    1px               3.260511       0.222231
                                                         0.650030       0.162952
                                                         0.169417       0.133843
                          7       1    1py               3.260511       0.222231
                                                         0.650030       0.162952
                                                         0.169417       0.133843
                          7       1    1pz               3.260511       0.222231
                                                         0.650030       0.162952
                                                         0.169417       0.133843

                          8       1    1px               0.055732       0.038599
                          8       1    1py               0.055732       0.038599
                          8       1    1pz               0.055732       0.038599

                          9       1    1px               0.020490       0.011050
                          9       1    1py               0.020490       0.011050
                          9       1    1pz               0.020490       0.011050

                         10       1    1px               3.327000       6.404808
                         10       1    1py               3.327000       6.404808
                         10       1    1pz               3.327000       6.404808

                         11       1    1dx2              0.230000       0.125728
                         11       1    1dxy              0.230000       0.217768
                         11       1    1dxz              0.230000       0.217768
                         11       1    1dy2              0.230000       0.125728
                         11       1    1dyz              0.230000       0.217768
                         11       1    1dz2              0.230000       0.125728

                         12       1    1dx2              0.075700       0.017982
                         12       1    1dxy              0.075700       0.031145
                         12       1    1dxz              0.075700       0.031145
                         12       1    1dy2              0.075700       0.017982
                         12       1    1dyz              0.075700       0.031145
                         12       1    1dz2              0.075700       0.017982

                         13       1    1fx3              0.135000       0.016263
                         13       1    1fx2y             0.135000       0.036366
                         13       1    1fx2z             0.135000       0.036366
                         13       1    1fxy2             0.135000       0.036366
                         13       1    1fxyz             0.135000       0.062987
                         13       1    1fxz2             0.135000       0.036366
                         13       1    1fy3              0.135000       0.016263
                         13       1    1fy2z             0.135000       0.036366
                         13       1    1fyz2             0.135000       0.036366
                         13       1    1fz3              0.135000       0.016263

     AE Potential information for                                            ALL

       Description:                                       All-electron potential
                                          Krack, Parrinello, PCCP 2, 2105 (2000)

       Gaussian exponent of the core charge distribution:               3.125000
       Electronic configuration (s p d ...):                           3   0   0

  2. Atomic kind: F                                     Number of atoms:       1

     Orbital Basis Set                                                 def2-QZVP

       Number of orbital shell sets:                                          17
       Number of orbital shells:                                              17
       Number of primitive Cartesian functions:                               29
       Number of Cartesian basis functions:                                   72
       Number of spherical basis functions:                                   57
       Norm type:                                                              2

       Normalised Cartesian orbitals:

                        Set   Shell   Orbital            Exponent    Coefficient

                          1       1    1s           132535.973450       0.386108
                                                     19758.112588       0.724649
                                                      4485.199695       1.250455
                                                      1273.815102       2.015188
                                                       418.938312       3.040568
                                                       152.557220       4.212686
                                                        59.821525       5.009443
                                                        24.819077       4.546938

                          2       1    1s              100.744467       2.325033
                                                        30.103728       8.414408

                          3       1    1s               10.814283       4.250191

                          4       1    1s                4.817289       2.317459

                          5       1    1s                1.655933       1.040381

                          6       1    1s                0.648935       0.515301

                          7       1    1s                0.247781       0.250300

                          8       1    1px             240.966541       3.491668
                                                        57.020700       4.618861
                                                        18.126952       5.179649
                                                         6.645740       4.786262
                                                         2.637572       3.245784
                          8       1    1py             240.966541       3.491668
                                                        57.020700       4.618861
                                                        18.126952       5.179649
                                                         6.645740       4.786262
                                                         2.637572       3.245784
                          8       1    1pz             240.966541       3.491668
                                                        57.020700       4.618861
                                                        18.126952       5.179649
                                                         6.645740       4.786262
                                                         2.637572       3.245784

                          9       1    1px               1.063822       1.540019
                          9       1    1py               1.063822       1.540019
                          9       1    1pz               1.063822       1.540019

                         10       1    1px               0.419326       0.480983
                         10       1    1py               0.419326       0.480983
                         10       1    1pz               0.419326       0.480983

                         11       1    1px               0.157476       0.141403
                         11       1    1py               0.157476       0.141403
                         11       1    1pz               0.157476       0.141403

                         12       1    1dx2              5.014000      27.652349
                         12       1    1dxy              5.014000      47.895274
                         12       1    1dxz              5.014000      47.895274
                         12       1    1dy2              5.014000      27.652349
                         12       1    1dyz              5.014000      47.895274
                         12       1    1dz2              5.014000      27.652349

                         13       1    1dx2              1.725000       4.273566
                         13       1    1dxy              1.725000       7.402033
                         13       1    1dxz              1.725000       7.402033
                         13       1    1dy2              1.725000       4.273566
                         13       1    1dyz              1.725000       7.402033
                         13       1    1dz2              1.725000       4.273566

                         14       1    1dx2              0.586000       0.645997
                         14       1    1dxy              0.586000       1.118899
                         14       1    1dxz              0.586000       1.118899
                         14       1    1dy2              0.586000       0.645997
                         14       1    1dyz              0.586000       1.118899
                         14       1    1dz2              0.586000       0.645997

                         15       1    1fx3              3.562000      25.660538
                         15       1    1fx2y             3.562000      57.378707
                         15       1    1fx2z             3.562000      57.378707
                         15       1    1fxy2             3.562000      57.378707
                         15       1    1fxyz             3.562000      99.382837
                         15       1    1fxz2             3.562000      57.378707
                         15       1    1fy3              3.562000      25.660538
                         15       1    1fy2z             3.562000      57.378707
                         15       1    1fyz2             3.562000      57.378707
                         15       1    1fz3              3.562000      25.660538

                         16       1    1fx3              1.148000       2.008277
                         16       1    1fx2y             1.148000       4.490645
                         16       1    1fx2z             1.148000       4.490645
                         16       1    1fxy2             1.148000       4.490645
                         16       1    1fxyz             1.148000       7.778025
                         16       1    1fxz2             1.148000       4.490645
                         16       1    1fy3              1.148000       2.008277
                         16       1    1fy2z             1.148000       4.490645
                         16       1    1fyz2             1.148000       4.490645
                         16       1    1fz3              1.148000       2.008277

                         17       1    1gx4              2.376000      12.023008
                         17       1    1gx3y             2.376000      31.809888
                         17       1    1gx3z             2.376000      31.809888
                         17       1    1gx2y2            2.376000      41.066389
                         17       1    1gx2yz            2.376000      71.129073
                         17       1    1gx2z2            2.376000      41.066389
                         17       1    1gxy3             2.376000      31.809888
                         17       1    1gxy2z            2.376000      71.129073
                         17       1    1gxyz2            2.376000      71.129073
                         17       1    1gxz3             2.376000      31.809888
                         17       1    1gy4              2.376000      12.023008
                         17       1    1gy3z             2.376000      31.809888
                         17       1    1gy2z2            2.376000      41.066389
                         17       1    1gyz3             2.376000      31.809888
                         17       1    1gz4              2.376000      12.023008

     RI Auxiliary Basis Set                                                RI-5Z

       Number of orbital shell sets:                                          39
       Number of orbital shells:                                              39
       Number of primitive Cartesian functions:                               39
       Number of Cartesian basis functions:                                  287
       Number of spherical basis functions:                                  193
       Norm type:                                                              2

       Normalised Cartesian orbitals:

                        Set   Shell   Orbital            Exponent    Coefficient

                          1       1    1s              645.424000      91.262829

                          2       1    1s              138.618000      28.792198

                          3       1    1s               38.729500      11.064748

                          4       1    1s               21.723600       7.171482

                          5       1    1s                7.480350       3.223677

                          6       1    1s                4.284400       2.122402

                          7       1    1s                2.601990       1.460123

                          8       1    1s                1.340780       0.888031

                          9       1    1s                0.603875       0.488225

                         10       1    1s                0.299915       0.288841

                         11       1    1px             118.066000     554.748517
                         11       1    1py             118.066000     554.748517
                         11       1    1pz             118.066000     554.748517

                         12       1    1px              32.033700     108.629797
                         12       1    1py              32.033700     108.629797
                         12       1    1pz              32.033700     108.629797

                         13       1    1px              13.592500      37.201827
                         13       1    1py              13.592500      37.201827
                         13       1    1pz              13.592500      37.201827

                         14       1    1px               6.289910      14.198603
                         14       1    1py               6.289910      14.198603
                         14       1    1pz               6.289910      14.198603

                         15       1    1px               3.490790       6.801344
                         15       1    1py               3.490790       6.801344
                         15       1    1pz               3.490790       6.801344

                         16       1    1px               1.639320       2.644051
                         16       1    1py               1.639320       2.644051
                         16       1    1pz               1.639320       2.644051

                         17       1    1px               0.880017       1.214937
                         17       1    1py               0.880017       1.214937
                         17       1    1pz               0.880017       1.214937

                         18       1    1px               0.533003       0.649161
                         18       1    1py               0.533003       0.649161
                         18       1    1pz               0.533003       0.649161

                         19       1    1dx2             27.767600     552.842674
                         19       1    1dxy             27.767600     957.551601
                         19       1    1dxz             27.767600     957.551601
                         19       1    1dy2             27.767600     552.842674
                         19       1    1dyz             27.767600     957.551601
                         19       1    1dz2             27.767600     552.842674

                         20       1    1dx2              8.880760      75.196424
                         20       1    1dxy              8.880760     130.244027
                         20       1    1dxz              8.880760     130.244027
                         20       1    1dy2              8.880760      75.196424
                         20       1    1dyz              8.880760     130.244027
                         20       1    1dz2              8.880760      75.196424

                         21       1    1dx2              5.495020      32.460536
                         21       1    1dxy              5.495020      56.223298
                         21       1    1dxz              5.495020      56.223298
                         21       1    1dy2              5.495020      32.460536
                         21       1    1dyz              5.495020      56.223298
                         21       1    1dz2              5.495020      32.460536

                         22       1    1dx2              2.971120      11.066742
                         22       1    1dxy              2.971120      19.168160
                         22       1    1dxz              2.971120      19.168160
                         22       1    1dy2              2.971120      11.066742
                         22       1    1dyz              2.971120      19.168160
                         22       1    1dz2              2.971120      11.066742

                         23       1    1dx2              1.819720       4.692642
                         23       1    1dxy              1.819720       8.127895
                         23       1    1dxz              1.819720       8.127895
                         23       1    1dy2              1.819720       4.692642
                         23       1    1dyz              1.819720       8.127895
                         23       1    1dz2              1.819720       4.692642

                         24       1    1dx2              0.890528       1.343670
                         24       1    1dxy              0.890528       2.327305
                         24       1    1dxz              0.890528       2.327305
                         24       1    1dy2              0.890528       1.343670
                         24       1    1dyz              0.890528       2.327305
                         24       1    1dz2              0.890528       1.343670

                         25       1    1dx2              0.367580       0.285611
                         25       1    1dxy              0.367580       0.494693
                         25       1    1dxz              0.367580       0.494693
                         25       1    1dy2              0.367580       0.285611
                         25       1    1dyz              0.367580       0.494693
                         25       1    1dz2              0.367580       0.285611

                         26       1    1fx3             18.500300    1044.976886
                         26       1    1fx2y            18.500300    2336.639352
                         26       1    1fx2z            18.500300    2336.639352
                         26       1    1fxy2            18.500300    2336.639352
                         26       1    1fxyz            18.500300    4047.178077
                         26       1    1fxz2            18.500300    2336.639352
                         26       1    1fy3             18.500300    1044.976886
                         26       1    1fy2z            18.500300    2336.639352
                         26       1    1fyz2            18.500300    2336.639352
                         26       1    1fz3             18.500300    1044.976886

                         27       1    1fx3              8.608610     186.876105
                         27       1    1fx2y             8.608610     417.867675
                         27       1    1fx2z             8.608610     417.867675
                         27       1    1fxy2             8.608610     417.867675
                         27       1    1fxyz             8.608610     723.768044
                         27       1    1fxz2             8.608610     417.867675
                         27       1    1fy3              8.608610     186.876105
                         27       1    1fy2z             8.608610     417.867675
                         27       1    1fyz2             8.608610     417.867675
                         27       1    1fz3              8.608610     186.876105

                         28       1    1fx3              4.943880      53.654638
                         28       1    1fx2y             4.943880     119.975419
                         28       1    1fx2z             4.943880     119.975419
                         28       1    1fxy2             4.943880     119.975419
                         28       1    1fxyz             4.943880     207.803521
                         28       1    1fxz2             4.943880     119.975419
                         28       1    1fy3              4.943880      53.654638
                         28       1    1fy2z             4.943880     119.975419
                         28       1    1fyz2             4.943880     119.975419
                         28       1    1fz3              4.943880      53.654638

                         29       1    1fx3              2.814490      15.104411
                         29       1    1fx2y             2.814490      33.774490
                         29       1    1fx2z             2.814490      33.774490
                         29       1    1fxy2             2.814490      33.774490
                         29       1    1fxyz             2.814490      58.499133
                         29       1    1fxz2             2.814490      33.774490
                         29       1    1fy3              2.814490      15.104411
                         29       1    1fy2z             2.814490      33.774490
                         29       1    1fyz2             2.814490      33.774490
                         29       1    1fz3              2.814490      15.104411

                         30       1    1fx3              1.581520       4.129263
                         30       1    1fx2y             1.581520       9.233312
                         30       1    1fx2z             1.581520       9.233312
                         30       1    1fxy2             1.581520       9.233312
                         30       1    1fxyz             1.581520      15.992565
                         30       1    1fxz2             1.581520       9.233312
                         30       1    1fy3              1.581520       4.129263
                         30       1    1fy2z             1.581520       9.233312
                         30       1    1fyz2             1.581520       9.233312
                         30       1    1fz3              1.581520       4.129263

                         31       1    1fx3              0.809465       0.914956
                         31       1    1fx2y             0.809465       2.045903
                         31       1    1fx2z             0.809465       2.045903
                         31       1    1fxy2             0.809465       2.045903
                         31       1    1fxyz             0.809465       3.543609
                         31       1    1fxz2             0.809465       2.045903
                         31       1    1fy3              0.809465       0.914956
                         31       1    1fy2z             0.809465       2.045903
                         31       1    1fyz2             0.809465       2.045903
                         31       1    1fz3              0.809465       0.914956

                         32       1    1gx4              9.163700     492.187181
                         32       1    1gx3y             9.163700    1302.204879
                         32       1    1gx3z             9.163700    1302.204879
                         32       1    1gx2y2            9.163700    1681.139270
                         32       1    1gx2yz            9.163700    2911.818631
                         32       1    1gx2z2            9.163700    1681.139270
                         32       1    1gxy3             9.163700    1302.204879
                         32       1    1gxy2z            9.163700    2911.818631
                         32       1    1gxyz2            9.163700    2911.818631
                         32       1    1gxz3             9.163700    1302.204879
                         32       1    1gy4              9.163700     492.187181
                         32       1    1gy3z             9.163700    1302.204879
                         32       1    1gy2z2            9.163700    1681.139270
                         32       1    1gyz3             9.163700    1302.204879
                         32       1    1gz4              9.163700     492.187181

                         33       1    1gx4              4.936690      89.822271
                         33       1    1gx3y             4.936690     237.647391
                         33       1    1gx3z             4.936690     237.647391
                         33       1    1gx2y2            4.936690     306.801463
                         33       1    1gx2yz            4.936690     531.395721
                         33       1    1gx2z2            4.936690     306.801463
                         33       1    1gxy3             4.936690     237.647391
                         33       1    1gxy2z            4.936690     531.395721
                         33       1    1gxyz2            4.936690     531.395721
                         33       1    1gxz3             4.936690     237.647391
                         33       1    1gy4              4.936690      89.822271
                         33       1    1gy3z             4.936690     237.647391
                         33       1    1gy2z2            4.936690     306.801463
                         33       1    1gyz3             4.936690     237.647391
                         33       1    1gz4              4.936690      89.822271

                         34       1    1gx4              2.714870      17.347835
                         34       1    1gx3y             2.714870      45.898057
                         34       1    1gx3z             2.714870      45.898057
                         34       1    1gx2y2            2.714870      59.254137
                         34       1    1gx2yz            2.714870     102.631176
                         34       1    1gx2z2            2.714870      59.254137
                         34       1    1gxy3             2.714870      45.898057
                         34       1    1gxy2z            2.714870     102.631176
                         34       1    1gxyz2            2.714870     102.631176
                         34       1    1gxz3             2.714870      45.898057
                         34       1    1gy4              2.714870      17.347835
                         34       1    1gy3z             2.714870      45.898057
                         34       1    1gy2z2            2.714870      59.254137
                         34       1    1gyz3             2.714870      45.898057
                         34       1    1gz4              2.714870      17.347835

                         35       1    1gx4              1.319190       2.383859
                         35       1    1gx3y             1.319190       6.307099
                         35       1    1gx3z             1.319190       6.307099
                         35       1    1gx2y2            1.319190       8.142430
                         35       1    1gx2yz            1.319190      14.103102
                         35       1    1gx2z2            1.319190       8.142430
                         35       1    1gxy3             1.319190       6.307099
                         35       1    1gxy2z            1.319190      14.103102
                         35       1    1gxyz2            1.319190      14.103102
                         35       1    1gxz3             1.319190       6.307099
                         35       1    1gy4              1.319190       2.383859
                         35       1    1gy3z             1.319190       6.307099
                         35       1    1gy2z2            1.319190       8.142430
                         35       1    1gyz3             1.319190       6.307099
                         35       1    1gz4              1.319190       2.383859

                         36       1    1hx5              7.104650     434.368079
                         36       1    1hx4y             7.104650    1303.104237
                         36       1    1hx4z             7.104650    1303.104237
                         36       1    1hx3y2            7.104650    1990.524601
                         36       1    1hx3yz            7.104650    3447.689742
                         36       1    1hx3z2            7.104650    1990.524601
                         36       1    1hx2y3            7.104650    1990.524601
                         36       1    1hx2y2z           7.104650    4450.948318
                         36       1    1hx2yz2           7.104650    4450.948318
                         36       1    1hx2z3            7.104650    1990.524601
                         36       1    1hxy4             7.104650    1303.104237
                         36       1    1hxy3z            7.104650    3447.689742
                         36       1    1hxy2z2           7.104650    4450.948318
                         36       1    1hxyz3            7.104650    3447.689742
                         36       1    1hxz4             7.104650    1303.104237
                         36       1    1hy5              7.104650     434.368079
                         36       1    1hy4z             7.104650    1303.104237
                         36       1    1hy3z2            7.104650    1990.524601
                         36       1    1hy2z3            7.104650    1990.524601
                         36       1    1hyz4             7.104650    1303.104237
                         36       1    1hz5              7.104650     434.368079

                         37       1    1hx5              4.172870      77.047304
                         37       1    1hx4y             4.172870     231.141911
                         37       1    1hx4z             4.172870     231.141911
                         37       1    1hx3y2            4.172870     353.075102
                         37       1    1hx3yz            4.172870     611.544015
                         37       1    1hx3z2            4.172870     353.075102
                         37       1    1hx2y3            4.172870     353.075102
                         37       1    1hx2y2z           4.172870     789.499928
                         37       1    1hx2yz2           4.172870     789.499928
                         37       1    1hx2z3            4.172870     353.075102
                         37       1    1hxy4             4.172870     231.141911
                         37       1    1hxy3z            4.172870     611.544015
                         37       1    1hxy2z2           4.172870     789.499928
                         37       1    1hxyz3            4.172870     611.544015
                         37       1    1hxz4             4.172870     231.141911
                         37       1    1hy5              4.172870      77.047304
                         37       1    1hy4z             4.172870     231.141911
                         37       1    1hy3z2            4.172870     353.075102
                         37       1    1hy2z3            4.172870     353.075102
                         37       1    1hyz4             4.172870     231.141911
                         37       1    1hz5              4.172870      77.047304

                         38       1    1hx5              2.200100       9.622370
                         38       1    1hx4y             2.200100      28.867109
                         38       1    1hx4z             2.200100      28.867109
                         38       1    1hx3y2            2.200100      44.095237
                         38       1    1hx3yz            2.200100      76.375191
                         38       1    1hx3z2            2.200100      44.095237
                         38       1    1hx2y3            2.200100      44.095237
                         38       1    1hx2y2z           2.200100      98.599948
                         38       1    1hx2yz2           2.200100      98.599948
                         38       1    1hx2z3            2.200100      44.095237
                         38       1    1hxy4             2.200100      28.867109
                         38       1    1hxy3z            2.200100      76.375191
                         38       1    1hxy2z2           2.200100      98.599948
                         38       1    1hxyz3            2.200100      76.375191
                         38       1    1hxz4             2.200100      28.867109
                         38       1    1hy5              2.200100       9.622370
                         38       1    1hy4z             2.200100      28.867109
                         38       1    1hy3z2            2.200100      44.095237
                         38       1    1hy2z3            2.200100      44.095237
                         38       1    1hyz4             2.200100      28.867109
                         38       1    1hz5              2.200100       9.622370

                         39       1    1ix6              4.223720      99.319499
                         39       1    1ix5y             4.223720     329.405512
                         39       1    1ix5z             4.223720     329.405512
                         39       1    1ix4y2            4.223720     570.547084
                         39       1    1ix4yz            4.223720     988.216537
                         39       1    1ix4z2            4.223720     570.547084
                         39       1    1ix3y3            4.223720     675.080413
                         39       1    1ix3y2z           4.223720    1509.525694
                         39       1    1ix3yz2           4.223720    1509.525694
                         39       1    1ix3z3            4.223720     675.080413
                         39       1    1ix2y4            4.223720     570.547084
                         39       1    1ix2y3z           4.223720    1509.525694
                         39       1    1ix2y2z2          4.223720    1948.789292
                         39       1    1ix2yz3           4.223720    1509.525694
                         39       1    1ix2z4            4.223720     570.547084
                         39       1    1ixy5             4.223720     329.405512
                         39       1    1ixy4z            4.223720     988.216537
                         39       1    1ixy3z2           4.223720    1509.525694
                         39       1    1ixy2z3           4.223720    1509.525694
[...]

 ENERGY| Total FORCE_EVAL ( QS ) energy (a.u.):             -107.535378128921423


 -------------------------------------------------------------------------------
 -                                                                             -
 -                                DBCSR STATISTICS                             -
 -                                                                             -
 -------------------------------------------------------------------------------
 COUNTER                                    TOTAL       BLAS       SMM       ACC
 flops    35 x    35 x    35                85750     100.0%      0.0%      0.0%
 flops    57 x    35 x    35               139650     100.0%      0.0%      0.0%
 flops    35 x    35 x    57               139650     100.0%      0.0%      0.0%
 flops    35 x    35 x     6               161700     100.0%      0.0%      0.0%
 flops    57 x    35 x    57               227430     100.0%      0.0%      0.0%
 flops    57 x    35 x     6               263340     100.0%      0.0%      0.0%
 flops    57 x    57 x     6               428868     100.0%      0.0%      0.0%
 flops    92 x    92 x    35               592480     100.0%      0.0%      0.0%
 flops    92 x    92 x    57               964896     100.0%      0.0%      0.0%
 flops    35 x   315 x    35            313330500     100.0%      0.0%      0.0%
 flops    57 x   315 x    35            492685200     100.0%      0.0%      0.0%
 flops    35 x   315 x    57            510281100     100.0%      0.0%      0.0%
 flops    35 x   513 x    35            510281100     100.0%      0.0%      0.0%
 flops    35 x   350 x    35            646555000     100.0%      0.0%      0.0%
 flops    57 x   315 x    57            802373040     100.0%      0.0%      0.0%
 flops    57 x   513 x    35            802373040     100.0%      0.0%      0.0%
 flops    35 x   513 x    57            831029220     100.0%      0.0%      0.0%
 flops    57 x   350 x    35           1016652000     100.0%      0.0%      0.0%
 flops    35 x   350 x    57           1052961000     100.0%      0.0%      0.0%
 flops    35 x   570 x    35           1052961000     100.0%      0.0%      0.0%
 flops   386 x    92 x    35           1113656320     100.0%      0.0%      0.0%
 flops    57 x   513 x    57           1306721808     100.0%      0.0%      0.0%
 flops   193 x   193 x   193           1610348768     100.0%      0.0%      0.0%
 flops    57 x   350 x    57           1655690400     100.0%      0.0%      0.0%
 flops    57 x   570 x    35           1655690400     100.0%      0.0%      0.0%
 flops    35 x   570 x    57           1714822200     100.0%      0.0%      0.0%
 flops   386 x    92 x    57           1813668864     100.0%      0.0%      0.0%
 flops    57 x   570 x    57           2696410080     100.0%      0.0%      0.0%
 flops   386 x    92 x   193           6141019136     100.0%      0.0%      0.0%
 flops   193 x   193 x   209           6975396736     100.0%      0.0%      0.0%
 flops   193 x   193 x   228           7609523712     100.0%      0.0%      0.0%
 flops   193 x   193 x   198           9912405888     100.0%      0.0%      0.0%
 flops   193 x   193 x   216          10813533696     100.0%      0.0%      0.0%
 flops inhomo. stacks                           0       0.0%      0.0%      0.0%
 flops total                        63.053374E+09     100.0%      0.0%      0.0%
 flops max/rank                     12.024815E+09     100.0%      0.0%      0.0%
 matmuls inhomo. stacks                         0       0.0%      0.0%      0.0%
 matmuls total                              12855     100.0%      0.0%      0.0%
 number of processed stacks                 11091     100.0%      0.0%      0.0%
 average stack size                                     1.2       0.0       0.0
 marketing flops                    63.424528E+09
 -------------------------------------------------------------------------------
 # multiplications                            742
 max memory usage/rank             447.893504E+06
 # max total images/rank                        5
 # max 3D layers                                1
 # MPI messages exchanged                  922680
 MPI messages size (bytes):
  total size                         4.032709E+09
  min size                           0.000000E+00
  max size                         595.984000E+03
  average size                       4.370647E+03
 MPI breakdown and total messages size (bytes):
             size <=      128              906036                        0
       128 < size <=     8192                 132                   582912
      8192 < size <=    32768                1371                 35239680
     32768 < size <=   131072                5397                493043040
    131072 < size <=  4194304                9744               3503867136
   4194304 < size <= 16777216                   0                        0
  16777216 < size                               0                        0
 -------------------------------------------------------------------------------

 *** WARNING in dbcsr_mm.F:278 :: Using a non-square number of MPI ranks ***
 *** might lead to poor performance. Used ranks: 40 Suggested: 36 81     ***

 -------------------------------------------------------------------------------
 -                                                                             -
 -                      DBCSR MESSAGE PASSING PERFORMANCE                      -
 -                                                                             -
 -------------------------------------------------------------------------------

 ROUTINE             CALLS      AVE VOLUME [Bytes]
 MP_Group               45
 MP_Bcast               34                     12.
 MP_Allreduce         4250                      8.
 MP_Alltoall          2560                  53656.
 MP_Wait             51360
 MP_ISend            49102                  10692.
 MP_IRecv            49102                     61.
 MP_Memory           78214
 -------------------------------------------------------------------------------


 MEMORY| Estimated peak process memory [MiB]                                 428

 -------------------------------------------------------------------------------
 ----                             MULTIGRID INFO                            ----
 -------------------------------------------------------------------------------
 count for grid        1:         379938          cutoff [a.u.]          200.00
 count for grid        2:          46913          cutoff [a.u.]           66.67
 count for grid        3:          26342          cutoff [a.u.]           22.22
 count for grid        4:          17839          cutoff [a.u.]            7.41
 total gridlevel count  :         471032

 -------------------------------------------------------------------------------
 -                                                                             -
 -                         MESSAGE PASSING PERFORMANCE                         -
 -                                                                             -
 -------------------------------------------------------------------------------

 ROUTINE             CALLS      AVE VOLUME [Bytes]
 MP_Group                5
 MP_Bcast              229                2487823.
 MP_Allreduce          573                  43692.
 MP_Sync                82
 MP_Alltoall           323                5882337.
 MP_ISendRecv         2028                  46219.
 MP_Wait              5796
 MP_comm_split          20
 MP_ISend             7916                  92470.
 MP_IRecv             6832                 193000.
 MP_Recv                 5                    736.
 -------------------------------------------------------------------------------


 -------------------------------------------------------------------------------
 -                                                                             -
 -                           R E F E R E N C E S                               -
 -                                                                             -
 -------------------------------------------------------------------------------
 
 CP2K version 7.0 (Development Version), the CP2K developers group (2018).
 CP2K is freely available from https://www.cp2k.org/ .

 Schuett, Ole; Messmer, Peter; Hutter, Juerg; VandeVondele, Joost. 
 Electronic Structure Calculations on Graphics Processing Units, John Wiley & Sons, Ltd, 173-190 (2016). 
 GPU-Accelerated Sparse Matrix-Matrix Multiplication for Linear Scaling Density Functional Theory.
 https://dx.doi.org/10.1002/9781118670712.ch8


 Del Ben, M; Schuett, O; Wentz, T; Messmer, P; Hutter, J;
 VandeVondele, J. 
 COMPUTER PHYSICS COMMUNICATIONS, 187, 120-129 (2015). 
 Enabling simulation at the fifth rung of DFT: Large scale RPA
 calculations with excellent time to solution.
 https://dx.doi.org/10.1016/j.cpc.2014.10.021


 Borstnik, U; VandeVondele, J; Weber, V; Hutter, J. 
 PARALLEL COMPUTING, 40 (5-6), 47-58 (2014). 
 Sparse matrix multiplication: The distributed block-compressed sparse
 row library.
 https://dx.doi.org/10.1016/j.parco.2014.03.012


 Hutter, J; Iannuzzi, M; Schiffmann, F; VandeVondele, J. 
 WILEY INTERDISCIPLINARY REVIEWS-COMPUTATIONAL MOLECULAR SCIENCE, 4 (1), 15-25 (2014). 
 CP2K: atomistic simulations of condensed matter systems.
 https://dx.doi.org/10.1002/wcms.1159


 Del Ben, M; Hutter, J; VandeVondele, J. 
 JOURNAL OF CHEMICAL THEORY AND COMPUTATION, 9 (6), 2654-2671 (2013). 
 Electron Correlation in the Condensed Phase from a Resolution of
 Identity Approach Based on the Gaussian and Plane Waves Scheme.
 https://dx.doi.org/10.1021/ct4002202


 Del Ben, M; Hutter, J; VandeVondele, J. 
 JOURNAL OF CHEMICAL THEORY AND COMPUTATION, 8 (11), 4177-4188 (2012). 
 Second-Order Moller-Plesset Perturbation Theory in the Condensed Phase:
 An Efficient and Massively Parallel Gaussian and Plane Waves Approach.
 https://dx.doi.org/10.1021/ct300531w


 Guidon, M; Hutter, J; VandeVondele, J. 
 JOURNAL OF CHEMICAL THEORY AND COMPUTATION, 5 (11), 3010-3021 (2009). 
 Robust Periodic Hartree-Fock Exchange for Large-Scale Simulations Using
 Gaussian Basis Sets.
 https://dx.doi.org/10.1021/ct900494g


 Guidon, M; Schiffmann, F; Hutter, J; VandeVondele, J. 
 JOURNAL OF CHEMICAL PHYSICS, 128 (21), 214104 (2008). 
 Ab initio molecular dynamics using hybrid density functionals.
 https://dx.doi.org/10.1063/1.2931945


 Frigo, M; Johnson, SG. 
 PROCEEDINGS OF THE IEEE, 93 (2), 216-231 (2005). 
 The design and implementation of FFTW3.
 https://dx.doi.org/10.1109/JPROC.2004.840301


 Lippert, G; Hutter, J; Parrinello, M. 
 THEORETICAL CHEMISTRY ACCOUNTS, 103 (2), 124-140 (1999). 
 The Gaussian and augmented-plane-wave density functional method for ab
 initio molecular dynamics simulations.
 https://dx.doi.org/10.1007/s002140050523


 Krack, M; Parrinello, M. 
 PHYSICAL CHEMISTRY CHEMICAL PHYSICS, 2 (10), 2105-2112 (2000). 
 All-electron ab-initio molecular dynamics.
 https://dx.doi.org/10.1039/b001167n


 Martyna, GJ; Tuckerman, ME. 
 JOURNAL OF CHEMICAL PHYSICS, 110 (6), 2810-2821 (1999). 
 A reciprocal space based method for treating long range interactions in
 ab initio and force-field-based calculations in clusters.
 https://dx.doi.org/10.1063/1.477923


 Perdew, JP; Burke, K; Ernzerhof, M. 
 PHYSICAL REVIEW LETTERS, 77 (18), 3865-3868 (1996). 
 Generalized gradient approximation made simple.
 https://dx.doi.org/10.1103/PhysRevLett.77.3865


 -------------------------------------------------------------------------------
 -                                                                             -
 -                                T I M I N G                                  -
 -                                                                             -
 -------------------------------------------------------------------------------
 SUBROUTINE                       CALLS  ASD         SELF TIME        TOTAL TIME
                                MAXIMUM       AVERAGE  MAXIMUM  AVERAGE  MAXIMUM
 CP2K                                 1  1.0    0.015    0.023   69.624   69.625
 qs_energies                          1  2.0    0.000    0.001   68.461   68.465
 mp2_main                             1  3.0    0.000    0.002   47.156   47.160
 mp2_gpw_main                         1  4.0    0.001    0.009   32.208   32.212
 rpa_ri_compute_en                    1  5.0    0.000    0.001   27.703   27.708
 rpa_num_int                          1  6.0    0.001    0.029   26.645   26.650
 scf_env_do_scf                       1  3.0    0.000    0.000   20.673   20.673
 scf_env_do_scf_inner_loop           11  4.0    0.001    0.001   20.673   20.673
 qs_ks_build_kohn_sham_matrix        12  6.8    0.003    0.004   18.075   18.084
 qs_ks_update_qs_env                 11  5.0    0.000    0.000   17.318   17.326
 rebuild_ks_matrix                   11  6.0    0.000    0.000   17.316   17.324
 compute_vec_Sigma_x_minus_vxc_       1  4.0    0.000    0.000   14.935   14.935
 integrate_four_center                1  5.0    0.005    0.008   14.151   14.161
 pw_transfer                        249  9.5    0.023    0.026    9.226    9.828
 fft_wrap_pw1pw2                    211 10.6    0.003    0.004    9.060    9.654
 dbcsr_multiply_generic             742  9.9    0.051    0.059    7.872    9.394
 fft_wrap_pw1pw2_200                138 11.7    0.606    0.670    8.429    9.056
 GW_postprocessing                    1  7.0    0.000    0.005    8.476    8.481
 compute_self_energy_im_time_gw       1  8.0    0.003    0.014    8.464    8.476
 calc_screening_functions             1  6.0    3.974    4.498    6.685    7.454
 multiply_cannon                    742 10.9    0.157    0.183    4.975    7.407
 fft3d_ps                           211 12.6    3.049    3.304    6.690    7.375
 qs_vxc_create                       12  7.8    0.000    0.001    6.566    6.567
 xc_vxc_pw_create                    11  9.0    0.066    0.075    6.566    6.566
 mp_waitall_1                     53768 13.3    3.297    5.848    3.297    5.848
 mp_sum_d                          1053  6.3    4.155    5.756    4.155    5.756
 rs_pw_transfer                     122  9.4    0.003    0.004    5.451    5.662
 dbcsr_complete_redistribute        123  9.4    0.008    0.050    5.313    5.390
 multiply_cannon_metrocomm3       14023 11.9    0.024    0.028    2.355    5.344
 copy_dbcsr_to_fm                    39  6.9    0.001    0.001    5.040    5.173
 rpa_num_int_RPA_matrix_operati      14  7.0    0.001    0.001    5.008    5.014
 powell_optimize                1051555  7.0    4.477    5.009    4.477    5.009
 mp_sum_dm                           78  7.7    3.035    4.582    3.035    4.582
 mp_sum_l                          3672 10.8    2.394    4.380    2.394    4.380
 compute_self_energy_im_time_gw     224  9.0    0.001    0.002    3.308    4.247
 multiply_cannon_metrocomm1       14023 11.9    0.011    0.016    0.532    3.989
 calc_pair_dist_radii                 1  6.0    1.560    1.731    3.327    3.866
 mp2_ri_gpw_compute_in                1  5.0    0.000    0.001    3.145    3.750
 mp_alltoall_z22v                   211 14.6    2.760    3.683    2.760    3.683
 mp_sync                             82  8.7    3.299    3.677    3.299    3.677
 xc_rho_set_and_dset_create          11 10.0    0.042    0.053    3.309    3.667
 qs_rho_update_rho                   12  5.0    0.000    0.000    3.507    3.509
 mp_cart_sub                         90  9.1    3.457    3.478    3.457    3.478
 calculate_rho_elec                  12  6.0    0.059    0.517    3.472    3.473
 mp_sum_dv                           60  8.3    2.309    3.376    2.309    3.376
 prepare_gapw_den                    12  7.8    0.000    0.006    3.244    3.284
 density_rs2pw                       12  7.0    0.001    0.001    3.114    3.212
 sum_up_and_integrate                12  7.8    0.027    0.038    2.892    3.051
 integrate_four_center_main           1  6.0    0.000    0.002    0.232    3.037
 integrate_four_center_bin          128  7.0    0.232    3.036    0.232    3.036
 integrate_v_rspace                  12  8.8    0.031    0.206    2.865    3.026
 mp_waitany                        3304 11.3    2.294    3.018    2.294    3.018
 compute_mat_P_omega                  1  7.0    0.000    0.000    2.994    2.996
 multiply_cannon_multrec          14023 11.9    0.558    2.963    1.017    2.977
 dbcsr_trace_a_b_d                  472  9.9    0.003    0.040    1.392    2.827
 compute_self_energy_im_time_gw     224  9.0    0.001    0.001    1.359    2.783
 potential_pw2rs                     12  9.8    0.002    0.004    2.760    2.764
 yz_to_x                            106 13.2    0.359    0.422    1.964    2.717
 get_l_sq_wghts_sin_tf_t_to_w         1  7.0    1.035    2.501    2.516    2.526
 get_l_sq_wghts_cos_tf_t_to_w         1  7.0    0.999    2.429    2.485    2.523
 mp_comm_split_direct                 8  6.6    1.715    2.520    1.715    2.520
 calculate_vxc_atom                  12  7.8    0.014    0.362    2.407    2.411
 integrate_four_center_load           1  6.0    0.000    0.000    1.048    2.399
 hfx_load_balance                     1  7.0    0.000    0.000    1.048    2.399
 hfx_load_balance_range               1  8.0    0.001    0.016    1.001    2.353
 rs_pw_transfer_PW2RS_200            25 10.7    1.083    1.268    2.174    2.350
 rpa_num_int_im_t_alloc_mat_gw        1  7.0    0.000    0.000    0.081    2.340
 allocate_matrices_gw_im_time         1  8.0    0.000    0.000    0.081    2.340
 get_mat_3c_overl_int_gw              1  9.0    0.000    0.001    0.081    2.340
 get_l_sq_wghts_cos_tf_w_to_t         1  7.0    0.969    2.293    2.310    2.336
 rpa_num_int_im_t_alloc_mat_24        1  7.0    0.000    0.000    2.267    2.328
 cp_fm_copy_general                   2  8.0    0.000    0.000    2.265    2.328
 cp_fm_start_copy_general             2  9.0    0.000    0.002    2.265    2.327
 fill_mat_3c_overl_int_gw             1 10.0    0.000    0.000    0.068    2.327
 mp_allgather_i                       4 10.0    2.264    2.324    2.264    2.324
 GW3c_fill_mat                        1 11.0    0.026    1.042    0.058    2.315
 compute_3c_overlap_int               1  6.0    0.597    0.859    1.691    2.278
 compute_self_energy_im_time_gw     224  9.0    0.001    0.002    2.145    2.168
 rs_pw_transfer_RS2PW_200            25  9.8    1.021    1.182    2.055    2.162
 gaVxcgb_GC                          22  9.0    0.049    1.976    0.049    1.976
 put_rho0_on_grid                    12  8.8    0.012    0.022    1.935    1.976
 compute_self_energy_im_time_gw     224  9.0    0.001    0.001    1.514    1.967
 compute_mat_P_omega_calc_P          14  8.0    0.000    0.006    1.488    1.889
 x_to_yz                            105 14.1    0.514    0.582    1.669    1.887
 create_dbcsr_matrices_im_time        1  5.0    0.374    0.379    1.072    1.816
 mp_cart_create                      50  9.1    1.575    1.671    1.575    1.671
 make_m2s                          1484 10.9    0.038    0.044    1.322    1.617
 integrate_vhg0_rspace               12  7.8    0.065    0.081    1.379    1.482
 calculate_Lmin1                      1  6.0    0.000    0.000    1.446    1.446
 -------------------------------------------------------------------------------

 The number of warnings for this run is : 3
 
 -------------------------------------------------------------------------------
  **** **** ******  **  PROGRAM ENDED AT                 2019-05-31 17:18:54.888
 ***** ** ***  *** **   PROGRAM RAN ON                                    tcopt4
 **    ****   ******    PROGRAM RAN BY                                   wilhelm
 ***** **    ** ** **   PROGRAM PROCESS ID                                 83246
  **** **  *******  **  PROGRAM STOPPED IN /data/wilhelm/2_job_test/11_GW100/3_c
                                           alcs/54_LiF
