 DBCSR| CPU Multiplication driver                                           BLAS
 DBCSR| Multrec recursion limit                                              512
 DBCSR| Multiplication stack size                                           1000
 DBCSR| Maximum elements for images                                    UNLIMITED
 DBCSR| Multiplicative factor virtual images                                   1
 DBCSR| Use multiplication densification                                       T
 DBCSR| Multiplication size stacks                                             3
 DBCSR| Number of 3D layers                                               SINGLE
 DBCSR| Use MPI memory allocation                                              T
 DBCSR| Use RMA algorithm                                                      F
 DBCSR| Use Communication thread                                               T
 DBCSR| Communication thread load                                             87


  **** **** ******  **  PROGRAM STARTED AT               2019-06-07 06:54:41.251
 ***** ** ***  *** **   PROGRAM STARTED ON                                tcopt4
 **    ****   ******    PROGRAM STARTED BY                               wilhelm
 ***** **    ** ** **   PROGRAM PROCESS ID                                 58383
  **** **  *******  **  PROGRAM STARTED IN /data/wilhelm/2_job_test/11_GW100/3_c
                                           alcs/54_LiF

 CP2K| version string:                    CP2K version 7.0 (Development Version)
 CP2K| source code revision number:                                  git:bc2813a
 CP2K| cp2kflags: libint fftw3 libxc pexsi elpa=201705 parallel mpi3 scalapack q
 CP2K|            uip libderiv_max_am1=5 libint_max_am=6
 CP2K| is freely available from                            https://www.cp2k.org/
 CP2K| Program compiled at                         Sun Jun  2 14:38:23 CEST 2019
 CP2K| Program compiled on                                                tcopt4
 CP2K| Program compiled for                            local_valgrind_March_2019
 CP2K| Data directory path              /data/wilhelm/1_git_repository/cp2k/data
 CP2K| Input file name                                                    GW.inp

 GLOBAL| Force Environment number                                              1
 GLOBAL| Basis set file name                              BASIS_def2_QZVP_RI_ALL
 GLOBAL| Potential file name                                           POTENTIAL
 GLOBAL| MM Potential file name                                     MM_POTENTIAL
 GLOBAL| Coordinate file name                                         54_LiF.xyz
 GLOBAL| Method name                                                        CP2K
 GLOBAL| Project name                                                   ALL_ELEC
 GLOBAL| Preferred FFT library                                             FFTW3
 GLOBAL| Preferred diagonalization lib.                                       SL
 GLOBAL| Run type                                                         ENERGY
 GLOBAL| All-to-all communication in single precision                          F
 GLOBAL| FFTs using library dependent lengths                                  F
 GLOBAL| Global print level                                               MEDIUM
 GLOBAL| MPI I/O enabled                                                       T
 GLOBAL| Total number of message passing processes                            24
 GLOBAL| Number of threads for this process                                    1
 GLOBAL| This output is from process                                           0
 GLOBAL| CPU model name :  Intel(R) Xeon(R) CPU E5-2697 v3 @ 2.60GHz

 MEMORY| system memory details [Kb]
 MEMORY|                        rank 0           min           max       average
 MEMORY| MemTotal            396954008     396954008     396954008     396954008
 MEMORY| MemFree             343987852     343987852     343987852     343987852
 MEMORY| Buffers                279872        279872        279872        279872
 MEMORY| Cached               34668644      34668644      34668644      34668644
 MEMORY| Slab                  1201152       1201152       1201152       1201152
 MEMORY| SReclaimable          1060732       1060732       1060732       1060732
 MEMORY| MemLikelyFree       379997100     379997100     379997100     379997100


 *** Fundamental physical constants (SI units) ***

 *** Literature: B. J. Mohr and B. N. Taylor,
 ***             CODATA recommended values of the fundamental physical
 ***             constants: 2006, Web Version 5.1
 ***             http://physics.nist.gov/constants

 Speed of light in vacuum [m/s]                             2.99792458000000E+08
 Magnetic constant or permeability of vacuum [N/A**2]       1.25663706143592E-06
 Electric constant or permittivity of vacuum [F/m]          8.85418781762039E-12
 Planck constant (h) [J*s]                                  6.62606896000000E-34
 Planck constant (h-bar) [J*s]                              1.05457162825177E-34
 Elementary charge [C]                                      1.60217648700000E-19
 Electron mass [kg]                                         9.10938215000000E-31
 Electron g factor [ ]                                     -2.00231930436220E+00
 Proton mass [kg]                                           1.67262163700000E-27
 Fine-structure constant                                    7.29735253760000E-03
 Rydberg constant [1/m]                                     1.09737315685270E+07
 Avogadro constant [1/mol]                                  6.02214179000000E+23
 Boltzmann constant [J/K]                                   1.38065040000000E-23
 Atomic mass unit [kg]                                      1.66053878200000E-27
 Bohr radius [m]                                            5.29177208590000E-11

 *** Conversion factors ***

 [u] -> [a.u.]                                              1.82288848426455E+03
 [Angstrom] -> [Bohr] = [a.u.]                              1.88972613288564E+00
 [a.u.] = [Bohr] -> [Angstrom]                              5.29177208590000E-01
 [a.u.] -> [s]                                              2.41888432650478E-17
 [a.u.] -> [fs]                                             2.41888432650478E-02
 [a.u.] -> [J]                                              4.35974393937059E-18
 [a.u.] -> [N]                                              8.23872205491840E-08
 [a.u.] -> [K]                                              3.15774647902944E+05
 [a.u.] -> [kJ/mol]                                         2.62549961709828E+03
 [a.u.] -> [kcal/mol]                                       6.27509468713739E+02
 [a.u.] -> [Pa]                                             2.94210107994716E+13
 [a.u.] -> [bar]                                            2.94210107994716E+08
 [a.u.] -> [atm]                                            2.90362800883016E+08
 [a.u.] -> [eV]                                             2.72113838565563E+01
 [a.u.] -> [Hz]                                             6.57968392072181E+15
 [a.u.] -> [1/cm] (wave numbers)                            2.19474631370540E+05
 [a.u./Bohr**2] -> [1/cm]                                   5.14048714338585E+03
 

 CELL_TOP| Volume [angstrom^3]:                                         4096.000
 CELL_TOP| Vector a [angstrom    16.000     0.000     0.000    |a| =      16.000
 CELL_TOP| Vector b [angstrom     0.000    16.000     0.000    |b| =      16.000
 CELL_TOP| Vector c [angstrom     0.000     0.000    16.000    |c| =      16.000
 CELL_TOP| Angle (b,c), alpha [degree]:                                   90.000
 CELL_TOP| Angle (a,c), beta  [degree]:                                   90.000
 CELL_TOP| Angle (a,b), gamma [degree]:                                   90.000
 CELL_TOP| Numerically orthorhombic:                                         YES

 GENERATE|  Preliminary Number of Bonds generated:                             0
 GENERATE|  Achieved consistency in connectivity generation.

 CELL| Volume [angstrom^3]:                                             4096.000
 CELL| Vector a [angstrom]:      16.000     0.000     0.000    |a| =      16.000
 CELL| Vector b [angstrom]:       0.000    16.000     0.000    |b| =      16.000
 CELL| Vector c [angstrom]:       0.000     0.000    16.000    |c| =      16.000
 CELL| Angle (b,c), alpha [degree]:                                       90.000
 CELL| Angle (a,c), beta  [degree]:                                       90.000
 CELL| Angle (a,b), gamma [degree]:                                       90.000
 CELL| Numerically orthorhombic:                                             YES

 CELL_REF| Volume [angstrom^3]:                                         4096.000
 CELL_REF| Vector a [angstrom    16.000     0.000     0.000    |a| =      16.000
 CELL_REF| Vector b [angstrom     0.000    16.000     0.000    |b| =      16.000
 CELL_REF| Vector c [angstrom     0.000     0.000    16.000    |c| =      16.000
 CELL_REF| Angle (b,c), alpha [degree]:                                   90.000
 CELL_REF| Angle (a,c), beta  [degree]:                                   90.000
 CELL_REF| Angle (a,b), gamma [degree]:                                   90.000
 CELL_REF| Numerically orthorhombic:                                         YES

 *******************************************************************************
 *******************************************************************************
 **                                                                           **
 **     #####                         ##              ##                      **
 **    ##   ##            ##          ##              ##                      **
 **   ##     ##                       ##            ######                    **
 **   ##     ##  ##   ##  ##   #####  ##  ##   ####   ##    #####    #####    **
 **   ##     ##  ##   ##  ##  ##      ## ##   ##      ##   ##   ##  ##   ##   **
 **   ##  ## ##  ##   ##  ##  ##      ####     ###    ##   ######   ######    **
 **    ##  ###   ##   ##  ##  ##      ## ##      ##   ##   ##       ##        **
 **     #######   #####   ##   #####  ##  ##  ####    ##    #####   ##        **
 **           ##                                                    ##        **
 **                                                                           **
 **                                                ... make the atoms dance   **
 **                                                                           **
 **            Copyright (C) by CP2K developers group (2000 - 2019)           **
 **                                                                           **
 *******************************************************************************

 DFT| Spin restricted Kohn-Sham (RKS) calculation                            RKS
 DFT| Multiplicity                                                             1
 DFT| Number of spin states                                                    1
 DFT| Charge                                                                   0
 DFT| Self-interaction correction (SIC)                                       NO
 DFT| Cutoffs: density                                              1.000000E-10
 DFT|          gradient                                             1.000000E-10
 DFT|          tau                                                  1.000000E-10
 DFT|          cutoff_smoothing_range                               0.000000E+00
 DFT| XC density smoothing                                                  NONE
 DFT| XC derivatives                                                          PW
 FUNCTIONAL| ROUTINE=NEW
 FUNCTIONAL| PBE:
 FUNCTIONAL| J.P.Perdew, K.Burke, M.Ernzerhof, Phys. Rev. Letter, vol. 77, n 18,
 FUNCTIONAL|  pp. 3865-3868, (1996){spin unpolarized}                           

 QS| Method:                                                                GAPW
 QS| Density plane wave grid type                        NON-SPHERICAL FULLSPACE
 QS| Number of grid levels:                                                    4
 QS| Density cutoff [a.u.]:                                                200.0
 QS| Multi grid cutoff [a.u.]: 1) grid level                               200.0
 QS|                           2) grid level                                66.7
 QS|                           3) grid level                                22.2
 QS|                           4) grid level                                 7.4
 QS| Grid level progression factor:                                          3.0
 QS| Relative density cutoff [a.u.]:                                        25.0
 QS| Consistent realspace mapping and integration 
 QS| Interaction thresholds: eps_pgf_orb:                                1.0E-05
 QS|                         eps_filter_matrix:                          0.0E+00
 QS|                         eps_core_charge:                            1.0E-12
 QS|                         eps_rho_gspace:                             1.0E-10
 QS|                         eps_rho_rspace:                             1.0E-10
 QS|                         eps_gvg_rspace:                             1.0E-05
 QS|                         eps_ppl:                                    1.0E-02
 QS|                         eps_ppnl:                                   1.0E-07
 QS| GAPW|                   eps_fit:                                    1.0E-04
 QS| GAPW|                   eps_iso:                                    1.0E-12
 QS| GAPW|                   eps_svd:                                    1.0E-08
 QS| GAPW|                   eps_cpc:                                    1.0E-10
 QS| GAPW|   atom-r-grid: quadrature:                 GC_LOG                        
 QS| GAPW|      atom-s-grid:  max l :                                          8
 QS| GAPW|      max_l_rho0 :                                                   2


 ATOMIC KIND INFORMATION

  1. Atomic kind: Li                                    Number of atoms:       1

     Orbital Basis Set                                                 def2-QZVP

       Number of orbital shell sets:                                          13
       Number of orbital shells:                                              13
       Number of primitive Cartesian functions:                               24
       Number of Cartesian basis functions:                                   40
       Number of spherical basis functions:                                   35
       Norm type:                                                              2

       Normalised Cartesian orbitals:

                        Set   Shell   Orbital            Exponent    Coefficient

                          1       1    1s            14853.977085       0.046759
                                                      2225.223648       0.087614
                                                       504.887390       0.151822
                                                       142.458475       0.246528
                                                        46.315600       0.374141
                                                        16.655335       0.514324
                                                         6.433119       0.600678
                                                         2.602704       0.544460
                                                         1.089725       0.321097

                          2       1    1s                4.423660       0.272734
                                                         1.235639       0.753703

                          3       1    1s                0.460675       0.398525

                          4       1    1s                0.096617       0.123510

                          5       1    1s                0.045915       0.070693

                          6       1    1s                0.021140       0.039513

                          7       1    1px               3.260511       0.222231
                                                         0.650030       0.162952
                                                         0.169417       0.133843
                          7       1    1py               3.260511       0.222231
                                                         0.650030       0.162952
                                                         0.169417       0.133843
                          7       1    1pz               3.260511       0.222231
                                                         0.650030       0.162952
                                                         0.169417       0.133843

                          8       1    1px               0.055732       0.038599
                          8       1    1py               0.055732       0.038599
                          8       1    1pz               0.055732       0.038599

                          9       1    1px               0.020490       0.011050
                          9       1    1py               0.020490       0.011050
                          9       1    1pz               0.020490       0.011050

                         10       1    1px               3.327000       6.404808
                         10       1    1py               3.327000       6.404808
                         10       1    1pz               3.327000       6.404808

                         11       1    1dx2              0.230000       0.125728
                         11       1    1dxy              0.230000       0.217768
                         11       1    1dxz              0.230000       0.217768
                         11       1    1dy2              0.230000       0.125728
                         11       1    1dyz              0.230000       0.217768
                         11       1    1dz2              0.230000       0.125728

                         12       1    1dx2              0.075700       0.017982
                         12       1    1dxy              0.075700       0.031145
                         12       1    1dxz              0.075700       0.031145
                         12       1    1dy2              0.075700       0.017982
                         12       1    1dyz              0.075700       0.031145
                         12       1    1dz2              0.075700       0.017982

                         13       1    1fx3              0.135000       0.016263
                         13       1    1fx2y             0.135000       0.036366
                         13       1    1fx2z             0.135000       0.036366
                         13       1    1fxy2             0.135000       0.036366
                         13       1    1fxyz             0.135000       0.062987
                         13       1    1fxz2             0.135000       0.036366
                         13       1    1fy3              0.135000       0.016263
                         13       1    1fy2z             0.135000       0.036366
                         13       1    1fyz2             0.135000       0.036366
                         13       1    1fz3              0.135000       0.016263

     RI Auxiliary Basis Set                                                RI-5Z

       Number of orbital shell sets:                                          39
       Number of orbital shells:                                              39
       Number of primitive Cartesian functions:                               39
       Number of Cartesian basis functions:                                  287
       Number of spherical basis functions:                                  193
       Norm type:                                                              2

       Normalised Cartesian orbitals:

                        Set   Shell   Orbital            Exponent    Coefficient

                          1       1    1s              115.553000      25.118634

                          2       1    1s               24.228600       7.783167

                          3       1    1s                7.795370       3.324969

                          4       1    1s                2.891360       1.580290

                          5       1    1s                1.423940       0.929028

                          6       1    1s                0.705917       0.548877

                          7       1    1s                0.380123       0.345027

                          8       1    1s                0.246901       0.249633

                          9       1    1s                0.123532       0.148506

                         10       1    1s                0.064288       0.090993

                         11       1    1px              20.093900      60.641563
                         11       1    1py              20.093900      60.641563
                         11       1    1pz              20.093900      60.641563

                         12       1    1px               6.081490      13.612960
                         12       1    1py               6.081490      13.612960
                         12       1    1pz               6.081490      13.612960

                         13       1    1px               2.347260       4.141347
                         13       1    1py               2.347260       4.141347
                         13       1    1pz               2.347260       4.141347

                         14       1    1px               1.029950       1.478973
                         14       1    1py               1.029950       1.478973
                         14       1    1pz               1.029950       1.478973

                         15       1    1px               0.520190       0.629713
                         15       1    1py               0.520190       0.629713
                         15       1    1pz               0.520190       0.629713

                         16       1    1px               0.223276       0.218772
                         16       1    1py               0.223276       0.218772
                         16       1    1pz               0.223276       0.218772

                         17       1    1px               0.121261       0.101998
                         17       1    1py               0.121261       0.101998
                         17       1    1pz               0.121261       0.101998

                         18       1    1px               0.072777       0.053881
                         18       1    1py               0.072777       0.053881
                         18       1    1pz               0.072777       0.053881

                         19       1    1dx2              6.963580      49.132227
                         19       1    1dxy              6.963580      85.099514
                         19       1    1dxz              6.963580      85.099514
                         19       1    1dy2              6.963580      49.132227
                         19       1    1dyz              6.963580      85.099514
                         19       1    1dz2              6.963580      49.132227

                         20       1    1dx2              2.681530       9.248666
                         20       1    1dxy              2.681530      16.019160
                         20       1    1dxz              2.681530      16.019160
                         20       1    1dy2              2.681530       9.248666
                         20       1    1dyz              2.681530      16.019160
                         20       1    1dz2              2.681530       9.248666

                         21       1    1dx2              1.351630       2.788757
                         21       1    1dxy              1.351630       4.830269
                         21       1    1dxz              1.351630       4.830269
                         21       1    1dy2              1.351630       2.788757
                         21       1    1dyz              1.351630       4.830269
                         21       1    1dz2              1.351630       2.788757

                         22       1    1dx2              0.771893       1.046247
                         22       1    1dxy              0.771893       1.812154
                         22       1    1dxz              0.771893       1.812154
                         22       1    1dy2              0.771893       1.046247
                         22       1    1dyz              0.771893       1.812154
                         22       1    1dz2              0.771893       1.046247

                         23       1    1dx2              0.339644       0.248715
                         23       1    1dxy              0.339644       0.430786
                         23       1    1dxz              0.339644       0.430786
                         23       1    1dy2              0.339644       0.248715
                         23       1    1dyz              0.339644       0.430786
                         23       1    1dz2              0.339644       0.248715

                         24       1    1dx2              0.173452       0.076731
                         24       1    1dxy              0.173452       0.132903
                         24       1    1dxz              0.173452       0.132903
                         24       1    1dy2              0.173452       0.076731
                         24       1    1dyz              0.173452       0.132903
                         24       1    1dz2              0.173452       0.076731

                         25       1    1dx2              0.101078       0.029823
                         25       1    1dxy              0.101078       0.051656
                         25       1    1dxz              0.101078       0.051656
                         25       1    1dy2              0.101078       0.029823
                         25       1    1dyz              0.101078       0.051656
                         25       1    1dz2              0.101078       0.029823

                         26       1    1fx3              3.229490      20.582865
                         26       1    1fx2y             3.229490      46.024685
                         26       1    1fx2z             3.229490      46.024685
                         26       1    1fxy2             3.229490      46.024685
                         26       1    1fxyz             3.229490      79.717093
                         26       1    1fxz2             3.229490      46.024685
                         26       1    1fy3              3.229490      20.582865
                         26       1    1fy2z             3.229490      46.024685
                         26       1    1fyz2             3.229490      46.024685
                         26       1    1fz3              3.229490      20.582865

                         27       1    1fx3              1.349290       2.888626
                         27       1    1fx2y             1.349290       6.459165
                         27       1    1fx2z             1.349290       6.459165
                         27       1    1fxy2             1.349290       6.459165
                         27       1    1fxyz             1.349290      11.187602
                         27       1    1fxz2             1.349290       6.459165
                         27       1    1fy3              1.349290       2.888626
                         27       1    1fy2z             1.349290       6.459165
                         27       1    1fyz2             1.349290       6.459165
                         27       1    1fz3              1.349290       2.888626

                         28       1    1fx3              0.764640       0.804883
                         28       1    1fx2y             0.764640       1.799773
                         28       1    1fx2z             0.764640       1.799773
                         28       1    1fxy2             0.764640       1.799773
                         28       1    1fxyz             0.764640       3.117298
                         28       1    1fxz2             0.764640       1.799773
                         28       1    1fy3              0.764640       0.804883
                         28       1    1fy2z             0.764640       1.799773
                         28       1    1fyz2             0.764640       1.799773
                         28       1    1fz3              0.764640       0.804883

                         29       1    1fx3              0.415519       0.204072
                         29       1    1fx2y             0.415519       0.456319
                         29       1    1fx2z             0.415519       0.456319
                         29       1    1fxy2             0.415519       0.456319
                         29       1    1fxyz             0.415519       0.790368
                         29       1    1fxz2             0.415519       0.456319
                         29       1    1fy3              0.415519       0.204072
                         29       1    1fy2z             0.415519       0.456319
                         29       1    1fyz2             0.415519       0.456319
                         29       1    1fz3              0.415519       0.204072

                         30       1    1fx3              0.259280       0.070621
                         30       1    1fx2y             0.259280       0.157914
                         30       1    1fx2z             0.259280       0.157914
                         30       1    1fxy2             0.259280       0.157914
                         30       1    1fxyz             0.259280       0.273515
                         30       1    1fxz2             0.259280       0.157914
                         30       1    1fy3              0.259280       0.070621
                         30       1    1fy2z             0.259280       0.157914
                         30       1    1fyz2             0.259280       0.157914
                         30       1    1fz3              0.259280       0.070621

                         31       1    1fx3              0.156013       0.022520
                         31       1    1fx2y             0.156013       0.050356
                         31       1    1fx2z             0.156013       0.050356
                         31       1    1fxy2             0.156013       0.050356
                         31       1    1fxyz             0.156013       0.087219
                         31       1    1fxz2             0.156013       0.050356
                         31       1    1fy3              0.156013       0.022520
                         31       1    1fy2z             0.156013       0.050356
                         31       1    1fyz2             0.156013       0.050356
                         31       1    1fz3              0.156013       0.022520

                         32       1    1gx4              1.819640       5.772919
                         32       1    1gx3y             1.819640      15.273709
                         32       1    1gx3z             1.819640      15.273709
                         32       1    1gx2y2            1.819640      19.718273
                         32       1    1gx2yz            1.819640      34.153051
                         32       1    1gx2z2            1.819640      19.718273
                         32       1    1gxy3             1.819640      15.273709
                         32       1    1gxy2z            1.819640      34.153051
                         32       1    1gxyz2            1.819640      34.153051
                         32       1    1gxz3             1.819640      15.273709
                         32       1    1gy4              1.819640       5.772919
                         32       1    1gy3z             1.819640      15.273709
                         32       1    1gy2z2            1.819640      19.718273
                         32       1    1gyz3             1.819640      15.273709
                         32       1    1gz4              1.819640       5.772919

                         33       1    1gx4              0.856517       0.726874
                         33       1    1gx3y             0.856517       1.923129
                         33       1    1gx3z             0.856517       1.923129
                         33       1    1gx2y2            0.856517       2.482749
                         33       1    1gx2yz            0.856517       4.300247
                         33       1    1gx2z2            0.856517       2.482749
                         33       1    1gxy3             0.856517       1.923129
                         33       1    1gxy2z            0.856517       4.300247
                         33       1    1gxyz2            0.856517       4.300247
                         33       1    1gxz3             0.856517       1.923129
                         33       1    1gy4              0.856517       0.726874
                         33       1    1gy3z             0.856517       1.923129
                         33       1    1gy2z2            0.856517       2.482749
                         33       1    1gyz3             0.856517       1.923129
                         33       1    1gz4              0.856517       0.726874

                         34       1    1gx4              0.434910       0.112729
                         34       1    1gx3y             0.434910       0.298252
                         34       1    1gx3z             0.434910       0.298252
                         34       1    1gx2y2            0.434910       0.385041
                         34       1    1gx2yz            0.434910       0.666911
                         34       1    1gx2z2            0.434910       0.385041
                         34       1    1gxy3             0.434910       0.298252
                         34       1    1gxy2z            0.434910       0.666911
                         34       1    1gxyz2            0.434910       0.666911
                         34       1    1gxz3             0.434910       0.298252
                         34       1    1gy4              0.434910       0.112729
                         34       1    1gy3z             0.434910       0.298252
                         34       1    1gy2z2            0.434910       0.385041
                         34       1    1gyz3             0.434910       0.298252
                         34       1    1gz4              0.434910       0.112729

                         35       1    1gx4              0.196188       0.012627
                         35       1    1gx3y             0.196188       0.033407
                         35       1    1gx3z             0.196188       0.033407
                         35       1    1gx2y2            0.196188       0.043128
                         35       1    1gx2yz            0.196188       0.074700
                         35       1    1gx2z2            0.196188       0.043128
                         35       1    1gxy3             0.196188       0.033407
                         35       1    1gxy2z            0.196188       0.074700
                         35       1    1gxyz2            0.196188       0.074700
                         35       1    1gxz3             0.196188       0.033407
                         35       1    1gy4              0.196188       0.012627
                         35       1    1gy3z             0.196188       0.033407
                         35       1    1gy2z2            0.196188       0.043128
                         35       1    1gyz3             0.196188       0.033407
                         35       1    1gz4              0.196188       0.012627

                         36       1    1hx5              1.185280       1.289028
                         36       1    1hx4y             1.185280       3.867083
                         36       1    1hx4z             1.185280       3.867083
                         36       1    1hx3y2            1.185280       5.907067
                         36       1    1hx3yz            1.185280      10.231341
                         36       1    1hx3z2            1.185280       5.907067
                         36       1    1hx2y3            1.185280       5.907067
                         36       1    1hx2y2z           1.185280      13.208604
                         36       1    1hx2yz2           1.185280      13.208604
                         36       1    1hx2z3            1.185280       5.907067
                         36       1    1hxy4             1.185280       3.867083
                         36       1    1hxy3z            1.185280      10.231341
                         36       1    1hxy2z2           1.185280      13.208604
                         36       1    1hxyz3            1.185280      10.231341
                         36       1    1hxz4             1.185280       3.867083
                         36       1    1hy5              1.185280       1.289028
                         36       1    1hy4z             1.185280       3.867083
                         36       1    1hy3z2            1.185280       5.907067
                         36       1    1hy2z3            1.185280       5.907067
                         36       1    1hyz4             1.185280       3.867083
                         36       1    1hz5              1.185280       1.289028

                         37       1    1hx5              0.598672       0.140026
                         37       1    1hx4y             0.598672       0.420078
                         37       1    1hx4z             0.598672       0.420078
                         37       1    1hx3y2            0.598672       0.641679
                         37       1    1hx3yz            0.598672       1.111421
                         37       1    1hx3z2            0.598672       0.641679
                         37       1    1hx2y3            0.598672       0.641679
                         37       1    1hx2y2z           0.598672       1.434838
                         37       1    1hx2yz2           0.598672       1.434838
                         37       1    1hx2z3            0.598672       0.641679
                         37       1    1hxy4             0.598672       0.420078
                         37       1    1hxy3z            0.598672       1.111421
                         37       1    1hxy2z2           0.598672       1.434838
                         37       1    1hxyz3            0.598672       1.111421
                         37       1    1hxz4             0.598672       0.420078
                         37       1    1hy5              0.598672       0.140026
                         37       1    1hy4z             0.598672       0.420078
                         37       1    1hy3z2            0.598672       0.641679
                         37       1    1hy2z3            0.598672       0.641679
                         37       1    1hyz4             0.598672       0.420078
                         37       1    1hz5              0.598672       0.140026

                         38       1    1hx5              0.427119       0.046733
                         38       1    1hx4y             0.427119       0.140200
                         38       1    1hx4z             0.427119       0.140200
                         38       1    1hx3y2            0.427119       0.214160
                         38       1    1hx3yz            0.427119       0.370935
                         38       1    1hx3z2            0.427119       0.214160
                         38       1    1hx2y3            0.427119       0.214160
                         38       1    1hx2y2z           0.427119       0.478876
                         38       1    1hx2yz2           0.427119       0.478876
                         38       1    1hx2z3            0.427119       0.214160
                         38       1    1hxy4             0.427119       0.140200
                         38       1    1hxy3z            0.427119       0.370935
                         38       1    1hxy2z2           0.427119       0.478876
                         38       1    1hxyz3            0.427119       0.370935
                         38       1    1hxz4             0.427119       0.140200
                         38       1    1hy5              0.427119       0.046733
                         38       1    1hy4z             0.427119       0.140200
                         38       1    1hy3z2            0.427119       0.214160
                         38       1    1hy2z3            0.427119       0.214160
                         38       1    1hyz4             0.427119       0.140200
                         38       1    1hz5              0.427119       0.046733

                         39       1    1ix6              0.598672       0.065334
                         39       1    1ix5y             0.598672       0.216687
                         39       1    1ix5z             0.598672       0.216687
                         39       1    1ix4y2            0.598672       0.375313
                         39       1    1ix4yz            0.598672       0.650061
                         39       1    1ix4z2            0.598672       0.375313
                         39       1    1ix3y3            0.598672       0.444076
                         39       1    1ix3y2z           0.598672       0.992984
                         39       1    1ix3yz2           0.598672       0.992984
                         39       1    1ix3z3            0.598672       0.444076
                         39       1    1ix2y4            0.598672       0.375313
                         39       1    1ix2y3z           0.598672       0.992984
                         39       1    1ix2y2z2          0.598672       1.281937
                         39       1    1ix2yz3           0.598672       0.992984
                         39       1    1ix2z4            0.598672       0.375313
                         39       1    1ixy5             0.598672       0.216687
                         39       1    1ixy4z            0.598672       0.650061
                         39       1    1ixy3z2           0.598672       0.992984
                         39       1    1ixy2z3           0.598672       0.992984
                         39       1    1ixyz4            0.598672       0.650061
                         39       1    1ixz5             0.598672       0.216687
                         39       1    1iy6              0.598672       0.065334
                         39       1    1iy5z             0.598672       0.216687
                         39       1    1iy4z2            0.598672       0.375313
                         39       1    1iy3z3            0.598672       0.444076
                         39       1    1iy2z4            0.598672       0.375313
                         39       1    1iyz5             0.598672       0.216687
                         39       1    1iz6              0.598672       0.065334

     The atoms of this atomic kind are PAW atoms (GAPW):
       Hard Gaussian function radius:                                      1.512
       Rho0 radius:                                                        1.512
       Maximum GTO radius used for PAW projector construction:            24.566

     GAPW Soft Basis Set                                          def2-QZVP_soft

       Number of orbital shell sets:                                          13
       Number of orbital shells:                                              13
       Number of primitive Cartesian functions:                               16
       Number of Cartesian basis functions:                                   40
       Number of spherical basis functions:                                   35
       Norm type:                                                              2

       Normalised Cartesian orbitals:

                        Set   Shell   Orbital            Exponent    Coefficient

                          1       1    1s                2.602704       0.544460
                                                         1.089725       0.321097

                          2       1    1s                1.235639       0.753703

                          3       1    1s                0.460675       0.398525

                          4       1    1s                0.096617       0.123510

                          5       1    1s                0.045915       0.070693

                          6       1    1s                0.021140       0.039513

                          7       1    1px               3.260511       0.222231
                                                         0.650030       0.162952
                                                         0.169417       0.133843
                          7       1    1py               3.260511       0.222231
                                                         0.650030       0.162952
                                                         0.169417       0.133843
                          7       1    1pz               3.260511       0.222231
                                                         0.650030       0.162952
                                                         0.169417       0.133843

                          8       1    1px               0.055732       0.038599
                          8       1    1py               0.055732       0.038599
                          8       1    1pz               0.055732       0.038599

                          9       1    1px               0.020490       0.011050
                          9       1    1py               0.020490       0.011050
                          9       1    1pz               0.020490       0.011050

                         10       1    1px               3.327000       6.404808
                         10       1    1py               3.327000       6.404808
                         10       1    1pz               3.327000       6.404808

                         11       1    1dx2              0.230000       0.125728
                         11       1    1dxy              0.230000       0.217768
                         11       1    1dxz              0.230000       0.217768
                         11       1    1dy2              0.230000       0.125728
                         11       1    1dyz              0.230000       0.217768
                         11       1    1dz2              0.230000       0.125728

                         12       1    1dx2              0.075700       0.017982
                         12       1    1dxy              0.075700       0.031145
                         12       1    1dxz              0.075700       0.031145
                         12       1    1dy2              0.075700       0.017982
                         12       1    1dyz              0.075700       0.031145
                         12       1    1dz2              0.075700       0.017982

                         13       1    1fx3              0.135000       0.016263
                         13       1    1fx2y             0.135000       0.036366
                         13       1    1fx2z             0.135000       0.036366
                         13       1    1fxy2             0.135000       0.036366
                         13       1    1fxyz             0.135000       0.062987
                         13       1    1fxz2             0.135000       0.036366
                         13       1    1fy3              0.135000       0.016263
                         13       1    1fy2z             0.135000       0.036366
                         13       1    1fyz2             0.135000       0.036366
                         13       1    1fz3              0.135000       0.016263

     AE Potential information for                                            ALL

       Description:                                       All-electron potential
                                          Krack, Parrinello, PCCP 2, 2105 (2000)

       Gaussian exponent of the core charge distribution:               3.125000
       Electronic configuration (s p d ...):                           3   0   0

  2. Atomic kind: F                                     Number of atoms:       1

     Orbital Basis Set                                                 def2-QZVP

       Number of orbital shell sets:                                          17
       Number of orbital shells:                                              17
       Number of primitive Cartesian functions:                               29
       Number of Cartesian basis functions:                                   72
       Number of spherical basis functions:                                   57
       Norm type:                                                              2

       Normalised Cartesian orbitals:

                        Set   Shell   Orbital            Exponent    Coefficient

                          1       1    1s           132535.973450       0.386108
                                                     19758.112588       0.724649
                                                      4485.199695       1.250455
                                                      1273.815102       2.015188
                                                       418.938312       3.040568
                                                       152.557220       4.212686
                                                        59.821525       5.009443
                                                        24.819077       4.546938

                          2       1    1s              100.744467       2.325033
                                                        30.103728       8.414408

                          3       1    1s               10.814283       4.250191

                          4       1    1s                4.817289       2.317459

                          5       1    1s                1.655933       1.040381

                          6       1    1s                0.648935       0.515301

                          7       1    1s                0.247781       0.250300

                          8       1    1px             240.966541       3.491668
                                                        57.020700       4.618861
                                                        18.126952       5.179649
                                                         6.645740       4.786262
                                                         2.637572       3.245784
                          8       1    1py             240.966541       3.491668
                                                        57.020700       4.618861
                                                        18.126952       5.179649
                                                         6.645740       4.786262
                                                         2.637572       3.245784
                          8       1    1pz             240.966541       3.491668
                                                        57.020700       4.618861
                                                        18.126952       5.179649
                                                         6.645740       4.786262
                                                         2.637572       3.245784

                          9       1    1px               1.063822       1.540019
                          9       1    1py               1.063822       1.540019
                          9       1    1pz               1.063822       1.540019

                         10       1    1px               0.419326       0.480983
                         10       1    1py               0.419326       0.480983
                         10       1    1pz               0.419326       0.480983

                         11       1    1px               0.157476       0.141403
                         11       1    1py               0.157476       0.141403
                         11       1    1pz               0.157476       0.141403

                         12       1    1dx2              5.014000      27.652349
                         12       1    1dxy              5.014000      47.895274
                         12       1    1dxz              5.014000      47.895274
                         12       1    1dy2              5.014000      27.652349
                         12       1    1dyz              5.014000      47.895274
                         12       1    1dz2              5.014000      27.652349

                         13       1    1dx2              1.725000       4.273566
                         13       1    1dxy              1.725000       7.402033
                         13       1    1dxz              1.725000       7.402033
                         13       1    1dy2              1.725000       4.273566
                         13       1    1dyz              1.725000       7.402033
                         13       1    1dz2              1.725000       4.273566

                         14       1    1dx2              0.586000       0.645997
                         14       1    1dxy              0.586000       1.118899
                         14       1    1dxz              0.586000       1.118899
                         14       1    1dy2              0.586000       0.645997
                         14       1    1dyz              0.586000       1.118899
                         14       1    1dz2              0.586000       0.645997

                         15       1    1fx3              3.562000      25.660538
                         15       1    1fx2y             3.562000      57.378707
                         15       1    1fx2z             3.562000      57.378707
                         15       1    1fxy2             3.562000      57.378707
                         15       1    1fxyz             3.562000      99.382837
                         15       1    1fxz2             3.562000      57.378707
                         15       1    1fy3              3.562000      25.660538
                         15       1    1fy2z             3.562000      57.378707
                         15       1    1fyz2             3.562000      57.378707
                         15       1    1fz3              3.562000      25.660538

                         16       1    1fx3              1.148000       2.008277
                         16       1    1fx2y             1.148000       4.490645
                         16       1    1fx2z             1.148000       4.490645
                         16       1    1fxy2             1.148000       4.490645
                         16       1    1fxyz             1.148000       7.778025
                         16       1    1fxz2             1.148000       4.490645
                         16       1    1fy3              1.148000       2.008277
                         16       1    1fy2z             1.148000       4.490645
                         16       1    1fyz2             1.148000       4.490645
                         16       1    1fz3              1.148000       2.008277

                         17       1    1gx4              2.376000      12.023008
                         17       1    1gx3y             2.376000      31.809888
                         17       1    1gx3z             2.376000      31.809888
                         17       1    1gx2y2            2.376000      41.066389
                         17       1    1gx2yz            2.376000      71.129073
                         17       1    1gx2z2            2.376000      41.066389
                         17       1    1gxy3             2.376000      31.809888
                         17       1    1gxy2z            2.376000      71.129073
                         17       1    1gxyz2            2.376000      71.129073
                         17       1    1gxz3             2.376000      31.809888
                         17       1    1gy4              2.376000      12.023008
                         17       1    1gy3z             2.376000      31.809888
                         17       1    1gy2z2            2.376000      41.066389
                         17       1    1gyz3             2.376000      31.809888
                         17       1    1gz4              2.376000      12.023008

     RI Auxiliary Basis Set                                                RI-5Z

       Number of orbital shell sets:                                          39
       Number of orbital shells:                                              39
       Number of primitive Cartesian functions:                               39
       Number of Cartesian basis functions:                                  287
       Number of spherical basis functions:                                  193
       Norm type:                                                              2

       Normalised Cartesian orbitals:

                        Set   Shell   Orbital            Exponent    Coefficient

                          1       1    1s              645.424000      91.262829

                          2       1    1s              138.618000      28.792198

                          3       1    1s               38.729500      11.064748

                          4       1    1s               21.723600       7.171482

                          5       1    1s                7.480350       3.223677

                          6       1    1s                4.284400       2.122402

                          7       1    1s                2.601990       1.460123

                          8       1    1s                1.340780       0.888031

                          9       1    1s                0.603875       0.488225

                         10       1    1s                0.299915       0.288841

                         11       1    1px             118.066000     554.748517
                         11       1    1py             118.066000     554.748517
                         11       1    1pz             118.066000     554.748517

                         12       1    1px              32.033700     108.629797
                         12       1    1py              32.033700     108.629797
                         12       1    1pz              32.033700     108.629797

                         13       1    1px              13.592500      37.201827
                         13       1    1py              13.592500      37.201827
                         13       1    1pz              13.592500      37.201827

                         14       1    1px               6.289910      14.198603
                         14       1    1py               6.289910      14.198603
                         14       1    1pz               6.289910      14.198603

                         15       1    1px               3.490790       6.801344
                         15       1    1py               3.490790       6.801344
                         15       1    1pz               3.490790       6.801344

                         16       1    1px               1.639320       2.644051
                         16       1    1py               1.639320       2.644051
                         16       1    1pz               1.639320       2.644051

                         17       1    1px               0.880017       1.214937
                         17       1    1py               0.880017       1.214937
                         17       1    1pz               0.880017       1.214937

                         18       1    1px               0.533003       0.649161
                         18       1    1py               0.533003       0.649161
                         18       1    1pz               0.533003       0.649161

                         19       1    1dx2             27.767600     552.842674
                         19       1    1dxy             27.767600     957.551601
                         19       1    1dxz             27.767600     957.551601
                         19       1    1dy2             27.767600     552.842674
                         19       1    1dyz             27.767600     957.551601
                         19       1    1dz2             27.767600     552.842674

                         20       1    1dx2              8.880760      75.196424
                         20       1    1dxy              8.880760     130.244027
                         20       1    1dxz              8.880760     130.244027
                         20       1    1dy2              8.880760      75.196424
                         20       1    1dyz              8.880760     130.244027
                         20       1    1dz2              8.880760      75.196424

                         21       1    1dx2              5.495020      32.460536
                         21       1    1dxy              5.495020      56.223298
                         21       1    1dxz              5.495020      56.223298
                         21       1    1dy2              5.495020      32.460536
                         21       1    1dyz              5.495020      56.223298
                         21       1    1dz2              5.495020      32.460536

                         22       1    1dx2              2.971120      11.066742
                         22       1    1dxy              2.971120      19.168160
                         22       1    1dxz              2.971120      19.168160
                         22       1    1dy2              2.971120      11.066742
                         22       1    1dyz              2.971120      19.168160
                         22       1    1dz2              2.971120      11.066742

                         23       1    1dx2              1.819720       4.692642
                         23       1    1dxy              1.819720       8.127895
                         23       1    1dxz              1.819720       8.127895
                         23       1    1dy2              1.819720       4.692642
                         23       1    1dyz              1.819720       8.127895
                         23       1    1dz2              1.819720       4.692642

                         24       1    1dx2              0.890528       1.343670
                         24       1    1dxy              0.890528       2.327305
                         24       1    1dxz              0.890528       2.327305
                         24       1    1dy2              0.890528       1.343670
                         24       1    1dyz              0.890528       2.327305
                         24       1    1dz2              0.890528       1.343670

                         25       1    1dx2              0.367580       0.285611
                         25       1    1dxy              0.367580       0.494693
                         25       1    1dxz              0.367580       0.494693
                         25       1    1dy2              0.367580       0.285611
                         25       1    1dyz              0.367580       0.494693
                         25       1    1dz2              0.367580       0.285611

                         26       1    1fx3             18.500300    1044.976886
                         26       1    1fx2y            18.500300    2336.639352
                         26       1    1fx2z            18.500300    2336.639352
                         26       1    1fxy2            18.500300    2336.639352
                         26       1    1fxyz            18.500300    4047.178077
                         26       1    1fxz2            18.500300    2336.639352
                         26       1    1fy3             18.500300    1044.976886
                         26       1    1fy2z            18.500300    2336.639352
                         26       1    1fyz2            18.500300    2336.639352
                         26       1    1fz3             18.500300    1044.976886

                         27       1    1fx3              8.608610     186.876105
                         27       1    1fx2y             8.608610     417.867675
                         27       1    1fx2z             8.608610     417.867675
                         27       1    1fxy2             8.608610     417.867675
                         27       1    1fxyz             8.608610     723.768044
                         27       1    1fxz2             8.608610     417.867675
                         27       1    1fy3              8.608610     186.876105
                         27       1    1fy2z             8.608610     417.867675
                         27       1    1fyz2             8.608610     417.867675
                         27       1    1fz3              8.608610     186.876105

                         28       1    1fx3              4.943880      53.654638
                         28       1    1fx2y             4.943880     119.975419
                         28       1    1fx2z             4.943880     119.975419
                         28       1    1fxy2             4.943880     119.975419
                         28       1    1fxyz             4.943880     207.803521
                         28       1    1fxz2             4.943880     119.975419
                         28       1    1fy3              4.943880      53.654638
                         28       1    1fy2z             4.943880     119.975419
                         28       1    1fyz2             4.943880     119.975419
                         28       1    1fz3              4.943880      53.654638

                         29       1    1fx3              2.814490      15.104411
                         29       1    1fx2y             2.814490      33.774490
                         29       1    1fx2z             2.814490      33.774490
                         29       1    1fxy2             2.814490      33.774490
                         29       1    1fxyz             2.814490      58.499133
                         29       1    1fxz2             2.814490      33.774490
                         29       1    1fy3              2.814490      15.104411
                         29       1    1fy2z             2.814490      33.774490
                         29       1    1fyz2             2.814490      33.774490
                         29       1    1fz3              2.814490      15.104411

                         30       1    1fx3              1.581520       4.129263
                         30       1    1fx2y             1.581520       9.233312
                         30       1    1fx2z             1.581520       9.233312
                         30       1    1fxy2             1.581520       9.233312
                         30       1    1fxyz             1.581520      15.992565
                         30       1    1fxz2             1.581520       9.233312
                         30       1    1fy3              1.581520       4.129263
                         30       1    1fy2z             1.581520       9.233312
                         30       1    1fyz2             1.581520       9.233312
                         30       1    1fz3              1.581520       4.129263

                         31       1    1fx3              0.809465       0.914956
                         31       1    1fx2y             0.809465       2.045903
                         31       1    1fx2z             0.809465       2.045903
                         31       1    1fxy2             0.809465       2.045903
                         31       1    1fxyz             0.809465       3.543609
                         31       1    1fxz2             0.809465       2.045903
                         31       1    1fy3              0.809465       0.914956
                         31       1    1fy2z             0.809465       2.045903
                         31       1    1fyz2             0.809465       2.045903
                         31       1    1fz3              0.809465       0.914956

                         32       1    1gx4              9.163700     492.187181
                         32       1    1gx3y             9.163700    1302.204879
                         32       1    1gx3z             9.163700    1302.204879
                         32       1    1gx2y2            9.163700    1681.139270
                         32       1    1gx2yz            9.163700    2911.818631
                         32       1    1gx2z2            9.163700    1681.139270
                         32       1    1gxy3             9.163700    1302.204879
                         32       1    1gxy2z            9.163700    2911.818631
                         32       1    1gxyz2            9.163700    2911.818631
                         32       1    1gxz3             9.163700    1302.204879
                         32       1    1gy4              9.163700     492.187181
                         32       1    1gy3z             9.163700    1302.204879
                         32       1    1gy2z2            9.163700    1681.139270
                         32       1    1gyz3             9.163700    1302.204879
                         32       1    1gz4              9.163700     492.187181

                         33       1    1gx4              4.936690      89.822271
                         33       1    1gx3y             4.936690     237.647391
                         33       1    1gx3z             4.936690     237.647391
                         33       1    1gx2y2            4.936690     306.801463
                         33       1    1gx2yz            4.936690     531.395721
                         33       1    1gx2z2            4.936690     306.801463
                         33       1    1gxy3             4.936690     237.647391
                         33       1    1gxy2z            4.936690     531.395721
                         33       1    1gxyz2            4.936690     531.395721
                         33       1    1gxz3             4.936690     237.647391
                         33       1    1gy4              4.936690      89.822271
                         33       1    1gy3z             4.936690     237.647391
                         33       1    1gy2z2            4.936690     306.801463
                         33       1    1gyz3             4.936690     237.647391
                         33       1    1gz4              4.936690      89.822271

                         34       1    1gx4              2.714870      17.347835
                         34       1    1gx3y             2.714870      45.898057
                         34       1    1gx3z             2.714870      45.898057
                         34       1    1gx2y2            2.714870      59.254137
                         34       1    1gx2yz            2.714870     102.631176
                         34       1    1gx2z2            2.714870      59.254137
                         34       1    1gxy3             2.714870      45.898057
                         34       1    1gxy2z            2.714870     102.631176
                         34       1    1gxyz2            2.714870     102.631176
                         34       1    1gxz3             2.714870      45.898057
                         34       1    1gy4              2.714870      17.347835
                         34       1    1gy3z             2.714870      45.898057
                         34       1    1gy2z2            2.714870      59.254137
                         34       1    1gyz3             2.714870      45.898057
                         34       1    1gz4              2.714870      17.347835

                         35       1    1gx4              1.319190       2.383859
                         35       1    1gx3y             1.319190       6.307099
                         35       1    1gx3z             1.319190       6.307099
                         35       1    1gx2y2            1.319190       8.142430
                         35       1    1gx2yz            1.319190      14.103102
                         35       1    1gx2z2            1.319190       8.142430
                         35       1    1gxy3             1.319190       6.307099
                         35       1    1gxy2z            1.319190      14.103102
                         35       1    1gxyz2            1.319190      14.103102
                         35       1    1gxz3             1.319190       6.307099
                         35       1    1gy4              1.319190       2.383859
                         35       1    1gy3z             1.319190       6.307099
                         35       1    1gy2z2            1.319190       8.142430
                         35       1    1gyz3             1.319190       6.307099
                         35       1    1gz4              1.319190       2.383859

                         36       1    1hx5              7.104650     434.368079
                         36       1    1hx4y             7.104650    1303.104237
                         36       1    1hx4z             7.104650    1303.104237
                         36       1    1hx3y2            7.104650    1990.524601
                         36       1    1hx3yz            7.104650    3447.689742
                         36       1    1hx3z2            7.104650    1990.524601
                         36       1    1hx2y3            7.104650    1990.524601
                         36       1    1hx2y2z           7.104650    4450.948318
                         36       1    1hx2yz2           7.104650    4450.948318
                         36       1    1hx2z3            7.104650    1990.524601
                         36       1    1hxy4             7.104650    1303.104237
                         36       1    1hxy3z            7.104650    3447.689742
                         36       1    1hxy2z2           7.104650    4450.948318
                         36       1    1hxyz3            7.104650    3447.689742
                         36       1    1hxz4             7.104650    1303.104237
                         36       1    1hy5              7.104650     434.368079
                         36       1    1hy4z             7.104650    1303.104237
                         36       1    1hy3z2            7.104650    1990.524601
                         36       1    1hy2z3            7.104650    1990.524601
                         36       1    1hyz4             7.104650    1303.104237
                         36       1    1hz5              7.104650     434.368079

                         37       1    1hx5              4.172870      77.047304
                         37       1    1hx4y             4.172870     231.141911
                         37       1    1hx4z             4.172870     231.141911
                         37       1    1hx3y2            4.172870     353.075102
                         37       1    1hx3yz            4.172870     611.544015
                         37       1    1hx3z2            4.172870     353.075102
                         37       1    1hx2y3            4.172870     353.075102
                         37       1    1hx2y2z           4.172870     789.499928
                         37       1    1hx2yz2           4.172870     789.499928
                         37       1    1hx2z3            4.172870     353.075102
                         37       1    1hxy4             4.172870     231.141911
                         37       1    1hxy3z            4.172870     611.544015
                         37       1    1hxy2z2           4.172870     789.499928
                         37       1    1hxyz3            4.172870     611.544015
                         37       1    1hxz4             4.172870     231.141911
                         37       1    1hy5              4.172870      77.047304
                         37       1    1hy4z             4.172870     231.141911
                         37       1    1hy3z2            4.172870     353.075102
                         37       1    1hy2z3            4.172870     353.075102
                         37       1    1hyz4             4.172870     231.141911
                         37       1    1hz5              4.172870      77.047304

                         38       1    1hx5              2.200100       9.622370
                         38       1    1hx4y             2.200100      28.867109
                         38       1    1hx4z             2.200100      28.867109
                         38       1    1hx3y2            2.200100      44.095237
                         38       1    1hx3yz            2.200100      76.375191
                         38       1    1hx3z2            2.200100      44.095237
                         38       1    1hx2y3            2.200100      44.095237
                         38       1    1hx2y2z           2.200100      98.599948
                         38       1    1hx2yz2           2.200100      98.599948
                         38       1    1hx2z3            2.200100      44.095237
                         38       1    1hxy4             2.200100      28.867109
                         38       1    1hxy3z            2.200100      76.375191
                         38       1    1hxy2z2           2.200100      98.599948
                         38       1    1hxyz3            2.200100      76.375191
                         38       1    1hxz4             2.200100      28.867109
                         38       1    1hy5              2.200100       9.622370
                         38       1    1hy4z             2.200100      28.867109
                         38       1    1hy3z2            2.200100      44.095237
                         38       1    1hy2z3            2.200100      44.095237
                         38       1    1hyz4             2.200100      28.867109
                         38       1    1hz5              2.200100       9.622370

                         39       1    1ix6              4.223720      99.319499
                         39       1    1ix5y             4.223720     329.405512
                         39       1    1ix5z             4.223720     329.405512
                         39       1    1ix4y2            4.223720     570.547084
                         39       1    1ix4yz            4.223720     988.216537
                         39       1    1ix4z2            4.223720     570.547084
                         39       1    1ix3y3            4.223720     675.080413
                         39       1    1ix3y2z           4.223720    1509.525694
                         39       1    1ix3yz2           4.223720    1509.525694
                         39       1    1ix3z3            4.223720     675.080413
                         39       1    1ix2y4            4.223720     570.547084
                         39       1    1ix2y3z           4.223720    1509.525694
                         39       1    1ix2y2z2          4.223720    1948.789292
                         39       1    1ix2yz3           4.223720    1509.525694
                         39       1    1ix2z4            4.223720     570.547084
                         39       1    1ixy5             4.223720     329.405512
                         39       1    1ixy4z            4.223720     988.216537
                         39       1    1ixy3z2           4.223720    1509.525694
                         39       1    1ixy2z3           4.223720    1509.525694
[...]
         871  0.96576347043855215      ( -2.8919532102876632E-003, -2.5678524985495378E-003)
         871  0.96576347043855215      ( -2.2030203352882308E-003, -2.3943518667209973E-003)
         872  0.97346142716965245      ( -2.1937940859854030E-003, -2.3985632674071175E-003)
         873  0.98127800108974561      ( -2.1844888223269930E-003, -2.4027419993470659E-003)
         874  0.98921599460618381      ( -2.1751037753190909E-003, -2.4068868265057753E-003)
         872  0.97346142716965245      ( -2.8760454205405245E-003, -2.5691355273174798E-003)
         873  0.98127800108974561      ( -2.8600107205633751E-003, -2.5703300078558904E-003)
         874  0.98921599460618381      ( -2.8438481053069185E-003, -2.5714338165436072E-003)
         875  0.99727829908815668      ( -2.1656381683417248E-003, -2.4109964750848836E-003)
         875  0.99727829908815668      ( -2.8275565683634112E-003, -2.5724447813958197E-003)
 
 n_level_gw =          15
 AFTER evaluate_pade_function/get_z_and_m_value_pade
 energy_val =  0.30143709896989179     
 
 n_level_gw =          10
 AFTER evaluate_pade_function/get_z_and_m_value_pade
 energy_val =  0.16840535128520398     
 nparam_pade =           8
 nparam_pade =           8
 omega_points_pade = (  0.0000000000000000     ,  9.9999999999999998E-013) (  0.0000000000000000     ,  3.9782473475931619E-002) (  0.0000000000000000     ,  8.2842712474619024E-002) (  0.0000000000000000     , 0.13363572758385980     ) (  0.0000000000000000     , 0.20000000000000004     ) (  0.0000000000000000     , 0.29932115253309782     ) (  0.0000000000000000     , 0.48284271247461907     ) (  0.0000000000000000     , 0.99727829908815668     )
 omega_points_pade = (  0.0000000000000000     ,  9.9999999999999998E-013) (  0.0000000000000000     ,  3.9782473475931619E-002) (  0.0000000000000000     ,  8.2842712474619024E-002) (  0.0000000000000000     , 0.13363572758385980     ) (  0.0000000000000000     , 0.20000000000000004     ) (  0.0000000000000000     , 0.29932115253309782     ) (  0.0000000000000000     , 0.48284271247461907     ) (  0.0000000000000000     , 0.99727829908815668     )
 coeff_pade = ( -3.4665787977133963E-003, -5.2767160328909474E-015) ( -1.5169258776162826     ,  5.3358919546770175E-002) ( 0.85360492399875476     ,-0.22767243692143066     ) (  2.1984754355434646     , 0.24432461557507668     ) ( -1.4288782917703715     , -1.9449347433762425     ) (-0.97476277314729631     , 0.72369726831815440     ) (-0.53433516793822777     , -5.3703860457111920     ) ( 0.13249232105697595     ,-0.22578977785465401     )
 sigma_c_pade = (-0.12386314482108841     , -3.6995187395059070E-004)
 coeff_pade = ( -5.2483272192930426E-003, -6.5747387721090096E-015) ( -1.2491732016198402     , -7.5772761591409862E-004) (  9.3402912315489819E-003,-0.19267535487407941     ) (-0.12435604635133279     ,  3.8445235625991150     ) (  1.8897650044917484     , -5.6510666194707131     ) ( 0.69914374634624055     ,-0.27160923297128309     ) ( -5.2445707570721281     , -1.4624453992929416     ) (  1.3856487541306095     ,-0.50774625090305603     )
 sigma_c_pade = (-0.23375299623129120     , -2.3819033426315771E-002)
 z_value(n_level_gw) =  0.98390560127490823     
 z_value(n_level_gw) =  0.99187992103393785     
 m_value(n_level_gw) =  -8.1865544345306237E-003
 level_energ_GW =   6.2244011161444776E-002
 
 m_value(n_level_gw) =  -1.6357665516119953E-002
 level_energ_GW =  0.21598915345034106     
 
 
 
 n_level_gw =          10
 AFTER get_sigma_c_newton_pade
 vec_gw_energ(n_level_gw) = -0.13185028280510178     
 Eigenval_scf(n_level_gw_ref) =  0.77090861840977298     
 n_level_gw =          15
 AFTER get_sigma_c_newton_pade
 vec_gw_energ(n_level_gw) = -0.25827106615566509     
 Eigenval_scf(n_level_gw_ref) =   4.3908355046578125     
 nparam_pade =           8
 nparam_pade =           8
 level_energ_GW =   6.2244011161444776E-002
 
 level_energ_GW =  0.21598915345034106     
 
  
  GW quasiparticle energies
  -------------------------
   
  The GW quasiparticle energies are calculated according to: 
  E_GW = E_SCF + Z * ( Sigc(E_SCF) + Sigx - vxc )
   
  The energy unit of the following table is eV.  Sigc_fit is a very conservative
  estimate of the statistical error of the fitting.
   
            MO      E_SCF       Sigc   Sigc_fit   Sigx-vxc          Z       E_GW
     1 ( occ )   -655.656     -3.250      0.000    -55.692      1.000   -714.598
     2 ( occ )    -50.503      3.865      0.000    -15.773      1.000    -62.412
     3 ( occ )    -24.472      8.649      0.000    -14.032      1.000    -29.855
     4 ( occ )     -6.376      3.864      0.000     -8.176      1.000    -10.688
     5 ( occ )     -6.087      3.664      0.000     -7.671      1.000    -10.093
     6 ( occ )     -6.087      3.664      0.000     -7.671      1.000    -10.093
     7 ( vir )     -1.536     -0.278      0.000      1.907      1.000      0.092
     8 ( vir )      0.192     -0.142      0.000      1.220      1.000      1.269
     9 ( vir )      0.192     -0.142      0.000      1.220      1.000      1.269
    10 ( vir )      0.771     -0.132      0.000      1.054      1.000      1.693
    11 ( vir )      1.117     -0.105      0.000      0.934      1.000      1.947
    12 ( vir )      2.141     -0.242      0.000      1.619      1.000      3.517
    13 ( vir )      2.141     -0.242      0.000      1.619      1.000      3.517
    14 ( vir )      3.347     -0.258      0.000      1.671      1.000      4.760
    15 ( vir )      4.391     -0.258      0.000      1.745      1.000      5.877
    16 ( vir )      4.391     -0.258      0.000      1.745      1.000      5.877
   
  GW HOMO-LUMO gap (eV)                                                    10.18
  

  Total RI-RPA Time=                                                  302.398625
  RI-RPA energy  =                                             -0.56015091233684

  Total EXX Time=                                                      16.195648
  EXX energy  =                                               -11.90767104718677

 ENERGY| Total FORCE_EVAL ( QS ) energy (a.u.):             -107.535389115916885


 -------------------------------------------------------------------------------
 -                                                                             -
 -                                DBCSR STATISTICS                             -
 -                                                                             -
 -------------------------------------------------------------------------------
 COUNTER                                    TOTAL       BLAS       SMM       ACC
 flops    35 x     6 x    35                14700     100.0%      0.0%      0.0%
 flops    57 x     6 x    35                23940     100.0%      0.0%      0.0%
 flops    35 x     6 x    57                23940     100.0%      0.0%      0.0%
 flops    35 x    35 x     6                29400     100.0%      0.0%      0.0%
 flops    57 x     6 x    57                38988     100.0%      0.0%      0.0%
 flops    57 x    35 x     6                47880     100.0%      0.0%      0.0%
 flops    57 x    57 x     6                77976     100.0%      0.0%      0.0%
 flops    35 x    35 x    35                85750     100.0%      0.0%      0.0%
 flops    57 x    35 x    35               139650     100.0%      0.0%      0.0%
 flops    35 x    35 x    57               139650     100.0%      0.0%      0.0%
 flops    57 x    35 x    57               227430     100.0%      0.0%      0.0%
 flops    92 x    92 x    35               592480     100.0%      0.0%      0.0%
 flops    92 x    92 x    57               964896     100.0%      0.0%      0.0%
 flops    35 x   595 x    35             84549500     100.0%      0.0%      0.0%
 flops    57 x   595 x    35            132946800     100.0%      0.0%      0.0%
 flops    35 x   595 x    57            137694900     100.0%      0.0%      0.0%
 flops    35 x   969 x    35            137694900     100.0%      0.0%      0.0%
 flops    57 x   595 x    57            216513360     100.0%      0.0%      0.0%
 flops    57 x   969 x    35            216513360     100.0%      0.0%      0.0%
 flops    35 x   969 x    57            224245980     100.0%      0.0%      0.0%
 flops    57 x   969 x    57            352607472     100.0%      0.0%      0.0%
 flops    35 x   560 x    35            875336000     100.0%      0.0%      0.0%
 flops   386 x    92 x    35           1113656320     100.0%      0.0%      0.0%
 flops    57 x   560 x    35           1376390400     100.0%      0.0%      0.0%
 flops    35 x   560 x    57           1425547200     100.0%      0.0%      0.0%
 flops    35 x   912 x    35           1425547200     100.0%      0.0%      0.0%
 flops   193 x   193 x   193           1610348768     100.0%      0.0%      0.0%
 flops   386 x    92 x    57           1813668864     100.0%      0.0%      0.0%
 flops    57 x   560 x    57           2241550080     100.0%      0.0%      0.0%
 flops    57 x   912 x    35           2241550080     100.0%      0.0%      0.0%
 flops    35 x   912 x    57           2321605440     100.0%      0.0%      0.0%
 flops    57 x   912 x    57           3650524416     100.0%      0.0%      0.0%
 flops   386 x    92 x   193           6141019136     100.0%      0.0%      0.0%
 flops   193 x   193 x   368          12282038272     100.0%      0.0%      0.0%
 flops   193 x   193 x   345          23028821760     100.0%      0.0%      0.0%
 flops inhomo. stacks                           0       0.0%      0.0%      0.0%
 flops total                        63.052777E+09     100.0%      0.0%      0.0%
 flops max/rank                     12.827585E+09     100.0%      0.0%      0.0%
 matmuls inhomo. stacks                         0       0.0%      0.0%      0.0%
 matmuls total                               8288     100.0%      0.0%      0.0%
 number of processed stacks                  7196     100.0%      0.0%      0.0%
 average stack size                                     1.2       0.0       0.0
 marketing flops                    63.424897E+09
 -------------------------------------------------------------------------------
 # multiplications                            734
 max memory usage/rank             535.326720E+06
 # max total images/rank                        3
 # max 3D layers                                1
 # MPI messages exchanged                  315096
 MPI messages size (bytes):
  total size                         2.388164E+09
  min size                           0.000000E+00
  max size                         595.984000E+03
  average size                       7.579163E+03
 MPI breakdown and total messages size (bytes):
             size <=      128              304056                        0
       128 < size <=     8192                  22                    83904
      8192 < size <=    32768                1368                 35162400
     32768 < size <=   131072                3602                299237824
    131072 < size <=  4194304                6048               2053692928
   4194304 < size <= 16777216                   0                        0
  16777216 < size                               0                        0
 -------------------------------------------------------------------------------

 *** WARNING in dbcsr_mm.F:278 :: Using a non-square number of MPI ranks ***
 *** might lead to poor performance. Used ranks: 24 Suggested: 25 49     ***

 -------------------------------------------------------------------------------
 -                                                                             -
 -                      DBCSR MESSAGE PASSING PERFORMANCE                      -
 -                                                                             -
 -------------------------------------------------------------------------------

 ROUTINE             CALLS      AVE VOLUME [Bytes]
 MP_Group               26
 MP_Bcast               36                     12.
 MP_Allreduce         4191                      8.
 MP_Alltoall          2260                  55653.
 MP_Wait             39728
 MP_ISend            29194                  17941.
 MP_IRecv            29194                     62.
 MP_Memory           55240
 -------------------------------------------------------------------------------


 MEMORY| Estimated peak process memory [MiB]                                 511

 -------------------------------------------------------------------------------
 ----                             MULTIGRID INFO                            ----
 -------------------------------------------------------------------------------
 count for grid        1:         228050          cutoff [a.u.]          200.00
 count for grid        2:          28225          cutoff [a.u.]           66.67
 count for grid        3:          15846          cutoff [a.u.]           22.22
 count for grid        4:          10735          cutoff [a.u.]            7.41
 total gridlevel count  :         282856

 -------------------------------------------------------------------------------
 -                                                                             -
 -                         MESSAGE PASSING PERFORMANCE                         -
 -                                                                             -
 -------------------------------------------------------------------------------

 ROUTINE             CALLS      AVE VOLUME [Bytes]
 MP_Group                5
 MP_Bcast              184                3087850.
 MP_Allreduce          341                  17635.
 MP_Sync                72
 MP_Alltoall           123                3776879.
 MP_ISendRecv          276                  58801.
 MP_Wait               940
 MP_comm_split          10
 MP_ISend             3188                  75738.
 MP_IRecv             2548                 232049.
 MP_Recv                 5                    736.
 -------------------------------------------------------------------------------


 -------------------------------------------------------------------------------
 -                                                                             -
 -                           R E F E R E N C E S                               -
 -                                                                             -
 -------------------------------------------------------------------------------
 
 CP2K version 7.0 (Development Version), the CP2K developers group (2018).
 CP2K is freely available from https://www.cp2k.org/ .

 Schuett, Ole; Messmer, Peter; Hutter, Juerg; VandeVondele, Joost. 
 Electronic Structure Calculations on Graphics Processing Units, John Wiley & Sons, Ltd, 173-190 (2016). 
 GPU-Accelerated Sparse Matrix-Matrix Multiplication for Linear Scaling Density Functional Theory.
 https://dx.doi.org/10.1002/9781118670712.ch8


 Del Ben, M; Schuett, O; Wentz, T; Messmer, P; Hutter, J;
 VandeVondele, J. 
 COMPUTER PHYSICS COMMUNICATIONS, 187, 120-129 (2015). 
 Enabling simulation at the fifth rung of DFT: Large scale RPA
 calculations with excellent time to solution.
 https://dx.doi.org/10.1016/j.cpc.2014.10.021


 Borstnik, U; VandeVondele, J; Weber, V; Hutter, J. 
 PARALLEL COMPUTING, 40 (5-6), 47-58 (2014). 
 Sparse matrix multiplication: The distributed block-compressed sparse
 row library.
 https://dx.doi.org/10.1016/j.parco.2014.03.012


 Hutter, J; Iannuzzi, M; Schiffmann, F; VandeVondele, J. 
 WILEY INTERDISCIPLINARY REVIEWS-COMPUTATIONAL MOLECULAR SCIENCE, 4 (1), 15-25 (2014). 
 CP2K: atomistic simulations of condensed matter systems.
 https://dx.doi.org/10.1002/wcms.1159


 Del Ben, M; Hutter, J; VandeVondele, J. 
 JOURNAL OF CHEMICAL THEORY AND COMPUTATION, 9 (6), 2654-2671 (2013). 
 Electron Correlation in the Condensed Phase from a Resolution of
 Identity Approach Based on the Gaussian and Plane Waves Scheme.
 https://dx.doi.org/10.1021/ct4002202


 Del Ben, M; Hutter, J; VandeVondele, J. 
 JOURNAL OF CHEMICAL THEORY AND COMPUTATION, 8 (11), 4177-4188 (2012). 
 Second-Order Moller-Plesset Perturbation Theory in the Condensed Phase:
 An Efficient and Massively Parallel Gaussian and Plane Waves Approach.
 https://dx.doi.org/10.1021/ct300531w


 Guidon, M; Hutter, J; VandeVondele, J. 
 JOURNAL OF CHEMICAL THEORY AND COMPUTATION, 5 (11), 3010-3021 (2009). 
 Robust Periodic Hartree-Fock Exchange for Large-Scale Simulations Using
 Gaussian Basis Sets.
 https://dx.doi.org/10.1021/ct900494g


 Guidon, M; Schiffmann, F; Hutter, J; VandeVondele, J. 
 JOURNAL OF CHEMICAL PHYSICS, 128 (21), 214104 (2008). 
 Ab initio molecular dynamics using hybrid density functionals.
 https://dx.doi.org/10.1063/1.2931945


 Frigo, M; Johnson, SG. 
 PROCEEDINGS OF THE IEEE, 93 (2), 216-231 (2005). 
 The design and implementation of FFTW3.
 https://dx.doi.org/10.1109/JPROC.2004.840301


 Lippert, G; Hutter, J; Parrinello, M. 
 THEORETICAL CHEMISTRY ACCOUNTS, 103 (2), 124-140 (1999). 
 The Gaussian and augmented-plane-wave density functional method for ab
 initio molecular dynamics simulations.
 https://dx.doi.org/10.1007/s002140050523


 Krack, M; Parrinello, M. 
 PHYSICAL CHEMISTRY CHEMICAL PHYSICS, 2 (10), 2105-2112 (2000). 
 All-electron ab-initio molecular dynamics.
 https://dx.doi.org/10.1039/b001167n


 Martyna, GJ; Tuckerman, ME. 
 JOURNAL OF CHEMICAL PHYSICS, 110 (6), 2810-2821 (1999). 
 A reciprocal space based method for treating long range interactions in
 ab initio and force-field-based calculations in clusters.
 https://dx.doi.org/10.1063/1.477923


 Perdew, JP; Burke, K; Ernzerhof, M. 
 PHYSICAL REVIEW LETTERS, 77 (18), 3865-3868 (1996). 
 Generalized gradient approximation made simple.
 https://dx.doi.org/10.1103/PhysRevLett.77.3865


 -------------------------------------------------------------------------------
 -                                                                             -
 -                                T I M I N G                                  -
 -                                                                             -
 -------------------------------------------------------------------------------
 SUBROUTINE                       CALLS  ASD         SELF TIME        TOTAL TIME
                                MAXIMUM       AVERAGE  MAXIMUM  AVERAGE  MAXIMUM
 CP2K                                 1  1.0    0.016    0.018  324.801  324.802
 qs_energies                          1  2.0    0.000    0.000  323.196  323.197
 mp2_main                             1  3.0    0.000    0.000  318.602  318.602
 mp2_gpw_main                         1  4.0    0.000    0.000  302.398  302.399
 rpa_ri_compute_en                    1  5.0    0.000    0.000  297.512  297.512
 rpa_num_int                          1  6.0    0.001    0.002  297.510  297.510
 get_l_sq_wghts_sin_tf_t_to_w         2  7.0  141.231  143.374  143.400  143.402
 get_l_sq_wghts_cos_tf_t_to_w         2  7.0  140.728  142.643  142.717  142.719
 compute_vec_Sigma_x_minus_vxc_       1  4.0    0.000    0.000   16.196   16.196
 integrate_four_center                1  5.0    0.003    0.004   15.114   15.114
 mp_sum_dm                           20  7.7    5.024   11.676    5.024   11.676
 calc_screening_functions             1  6.0    4.539    4.767    7.789    8.224
 -------------------------------------------------------------------------------

 The number of warnings for this run is : 1
 
 -------------------------------------------------------------------------------
  **** **** ******  **  PROGRAM ENDED AT                 2019-06-07 07:00:06.310
 ***** ** ***  *** **   PROGRAM RAN ON                                    tcopt4
 **    ****   ******    PROGRAM RAN BY                                   wilhelm
 ***** **    ** ** **   PROGRAM PROCESS ID                                 58383
  **** **  *******  **  PROGRAM STOPPED IN /data/wilhelm/2_job_test/11_GW100/3_c
                                           alcs/54_LiF
