 DBCSR| CPU Multiplication driver                                           BLAS
 DBCSR| Multrec recursion limit                                              512
 DBCSR| Multiplication stack size                                           1000
 DBCSR| Maximum elements for images                                    UNLIMITED
 DBCSR| Multiplicative factor virtual images                                   1
 DBCSR| Use multiplication densification                                       T
 DBCSR| Multiplication size stacks                                             3
 DBCSR| Number of 3D layers                                               SINGLE
 DBCSR| Use MPI memory allocation                                              T
 DBCSR| Use RMA algorithm                                                      F
 DBCSR| Use Communication thread                                               T
 DBCSR| Communication thread load                                             87


  **** **** ******  **  PROGRAM STARTED AT               2019-05-31 17:18:55.326
 ***** ** ***  *** **   PROGRAM STARTED ON                                tcopt4
 **    ****   ******    PROGRAM STARTED BY                               wilhelm
 ***** **    ** ** **   PROGRAM PROCESS ID                                 83634
  **** **  *******  **  PROGRAM STARTED IN /data/wilhelm/2_job_test/11_GW100/3_c
                                           alcs/55_MgF2

 CP2K| version string:                    CP2K version 7.0 (Development Version)
 CP2K| source code revision number:                                  git:026fb12
 CP2K| cp2kflags: libint fftw3 libxc pexsi elpa=201705 parallel mpi3 scalapack q
 CP2K|            uip libderiv_max_am1=5 libint_max_am=6
 CP2K| is freely available from                            https://www.cp2k.org/
 CP2K| Program compiled at                         Sat May 11 13:15:02 CEST 2019
 CP2K| Program compiled on                                                tcopt4
 CP2K| Program compiled for                            local_valgrind_March_2019
 CP2K| Data directory path              /data/wilhelm/1_git_repository/cp2k/data
 CP2K| Input file name                                                    GW.inp

 GLOBAL| Force Environment number                                              1
 GLOBAL| Basis set file name                              BASIS_def2_QZVP_RI_ALL
 GLOBAL| Potential file name                                           POTENTIAL
 GLOBAL| MM Potential file name                                     MM_POTENTIAL
 GLOBAL| Coordinate file name                                        55_MgF2.xyz
 GLOBAL| Method name                                                        CP2K
 GLOBAL| Project name                                                   ALL_ELEC
 GLOBAL| Preferred FFT library                                             FFTW3
 GLOBAL| Preferred diagonalization lib.                                       SL
 GLOBAL| Run type                                                         ENERGY
 GLOBAL| All-to-all communication in single precision                          F
 GLOBAL| FFTs using library dependent lengths                                  F
 GLOBAL| Global print level                                               MEDIUM
 GLOBAL| MPI I/O enabled                                                       T
 GLOBAL| Total number of message passing processes                            40
 GLOBAL| Number of threads for this process                                    1
 GLOBAL| This output is from process                                           0
 GLOBAL| CPU model name :  Intel(R) Xeon(R) CPU E5-2697 v3 @ 2.60GHz

 MEMORY| system memory details [Kb]
 MEMORY|                        rank 0           min           max       average
 MEMORY| MemTotal            396954008     396954008     396954008     396954008
 MEMORY| MemFree             375831824     375831824     375831824     375831824
 MEMORY| Buffers                337100        337100        337100        337100
 MEMORY| Cached               16087904      16087904      16087904      16087904
 MEMORY| Slab                   612700        612700        612700        612700
 MEMORY| SReclaimable           466904        466904        466904        466904
 MEMORY| MemLikelyFree       392723732     392723732     392723732     392723732


 *** Fundamental physical constants (SI units) ***

 *** Literature: B. J. Mohr and B. N. Taylor,
 ***             CODATA recommended values of the fundamental physical
 ***             constants: 2006, Web Version 5.1
 ***             http://physics.nist.gov/constants

 Speed of light in vacuum [m/s]                             2.99792458000000E+08
 Magnetic constant or permeability of vacuum [N/A**2]       1.25663706143592E-06
 Electric constant or permittivity of vacuum [F/m]          8.85418781762039E-12
 Planck constant (h) [J*s]                                  6.62606896000000E-34
 Planck constant (h-bar) [J*s]                              1.05457162825177E-34
 Elementary charge [C]                                      1.60217648700000E-19
 Electron mass [kg]                                         9.10938215000000E-31
 Electron g factor [ ]                                     -2.00231930436220E+00
 Proton mass [kg]                                           1.67262163700000E-27
 Fine-structure constant                                    7.29735253760000E-03
 Rydberg constant [1/m]                                     1.09737315685270E+07
 Avogadro constant [1/mol]                                  6.02214179000000E+23
 Boltzmann constant [J/K]                                   1.38065040000000E-23
 Atomic mass unit [kg]                                      1.66053878200000E-27
 Bohr radius [m]                                            5.29177208590000E-11

 *** Conversion factors ***

 [u] -> [a.u.]                                              1.82288848426455E+03
 [Angstrom] -> [Bohr] = [a.u.]                              1.88972613288564E+00
 [a.u.] = [Bohr] -> [Angstrom]                              5.29177208590000E-01
 [a.u.] -> [s]                                              2.41888432650478E-17
 [a.u.] -> [fs]                                             2.41888432650478E-02
 [a.u.] -> [J]                                              4.35974393937059E-18
 [a.u.] -> [N]                                              8.23872205491840E-08
 [a.u.] -> [K]                                              3.15774647902944E+05
 [a.u.] -> [kJ/mol]                                         2.62549961709828E+03
 [a.u.] -> [kcal/mol]                                       6.27509468713739E+02
 [a.u.] -> [Pa]                                             2.94210107994716E+13
 [a.u.] -> [bar]                                            2.94210107994716E+08
 [a.u.] -> [atm]                                            2.90362800883016E+08
 [a.u.] -> [eV]                                             2.72113838565563E+01
 [a.u.] -> [Hz]                                             6.57968392072181E+15
 [a.u.] -> [1/cm] (wave numbers)                            2.19474631370540E+05
 [a.u./Bohr**2] -> [1/cm]                                   5.14048714338585E+03
 

 CELL_TOP| Volume [angstrom^3]:                                         4096.000
 CELL_TOP| Vector a [angstrom    16.000     0.000     0.000    |a| =      16.000
 CELL_TOP| Vector b [angstrom     0.000    16.000     0.000    |b| =      16.000
 CELL_TOP| Vector c [angstrom     0.000     0.000    16.000    |c| =      16.000
 CELL_TOP| Angle (b,c), alpha [degree]:                                   90.000
 CELL_TOP| Angle (a,c), beta  [degree]:                                   90.000
 CELL_TOP| Angle (a,b), gamma [degree]:                                   90.000
 CELL_TOP| Numerically orthorhombic:                                         YES

 GENERATE|  Preliminary Number of Bonds generated:                             0
 GENERATE|  Achieved consistency in connectivity generation.

 CELL| Volume [angstrom^3]:                                             4096.000
 CELL| Vector a [angstrom]:      16.000     0.000     0.000    |a| =      16.000
 CELL| Vector b [angstrom]:       0.000    16.000     0.000    |b| =      16.000
 CELL| Vector c [angstrom]:       0.000     0.000    16.000    |c| =      16.000
 CELL| Angle (b,c), alpha [degree]:                                       90.000
 CELL| Angle (a,c), beta  [degree]:                                       90.000
 CELL| Angle (a,b), gamma [degree]:                                       90.000
 CELL| Numerically orthorhombic:                                             YES

 CELL_REF| Volume [angstrom^3]:                                         4096.000
 CELL_REF| Vector a [angstrom    16.000     0.000     0.000    |a| =      16.000
 CELL_REF| Vector b [angstrom     0.000    16.000     0.000    |b| =      16.000
 CELL_REF| Vector c [angstrom     0.000     0.000    16.000    |c| =      16.000
 CELL_REF| Angle (b,c), alpha [degree]:                                   90.000
 CELL_REF| Angle (a,c), beta  [degree]:                                   90.000
 CELL_REF| Angle (a,b), gamma [degree]:                                   90.000
 CELL_REF| Numerically orthorhombic:                                         YES

 *******************************************************************************
 *******************************************************************************
 **                                                                           **
 **     #####                         ##              ##                      **
 **    ##   ##            ##          ##              ##                      **
 **   ##     ##                       ##            ######                    **
 **   ##     ##  ##   ##  ##   #####  ##  ##   ####   ##    #####    #####    **
 **   ##     ##  ##   ##  ##  ##      ## ##   ##      ##   ##   ##  ##   ##   **
 **   ##  ## ##  ##   ##  ##  ##      ####     ###    ##   ######   ######    **
 **    ##  ###   ##   ##  ##  ##      ## ##      ##   ##   ##       ##        **
 **     #######   #####   ##   #####  ##  ##  ####    ##    #####   ##        **
 **           ##                                                    ##        **
 **                                                                           **
 **                                                ... make the atoms dance   **
 **                                                                           **
 **            Copyright (C) by CP2K developers group (2000 - 2019)           **
 **                                                                           **
 *******************************************************************************

 DFT| Spin restricted Kohn-Sham (RKS) calculation                            RKS
 DFT| Multiplicity                                                             1
 DFT| Number of spin states                                                    1
 DFT| Charge                                                                   0
 DFT| Self-interaction correction (SIC)                                       NO
 DFT| Cutoffs: density                                              1.000000E-10
 DFT|          gradient                                             1.000000E-10
 DFT|          tau                                                  1.000000E-10
 DFT|          cutoff_smoothing_range                               0.000000E+00
 DFT| XC density smoothing                                                  NONE
 DFT| XC derivatives                                                          PW
 FUNCTIONAL| ROUTINE=NEW
 FUNCTIONAL| PBE:
 FUNCTIONAL| J.P.Perdew, K.Burke, M.Ernzerhof, Phys. Rev. Letter, vol. 77, n 18,
 FUNCTIONAL|  pp. 3865-3868, (1996){spin unpolarized}                           

 QS| Method:                                                                GAPW
 QS| Density plane wave grid type                        NON-SPHERICAL FULLSPACE
 QS| Number of grid levels:                                                    4
 QS| Density cutoff [a.u.]:                                                200.0
 QS| Multi grid cutoff [a.u.]: 1) grid level                               200.0
 QS|                           2) grid level                                66.7
 QS|                           3) grid level                                22.2
 QS|                           4) grid level                                 7.4
 QS| Grid level progression factor:                                          3.0
 QS| Relative density cutoff [a.u.]:                                        25.0
 QS| Consistent realspace mapping and integration 
 QS| Interaction thresholds: eps_pgf_orb:                                1.0E-05
 QS|                         eps_filter_matrix:                          0.0E+00
 QS|                         eps_core_charge:                            1.0E-12
 QS|                         eps_rho_gspace:                             1.0E-10
 QS|                         eps_rho_rspace:                             1.0E-10
 QS|                         eps_gvg_rspace:                             1.0E-05
 QS|                         eps_ppl:                                    1.0E-02
 QS|                         eps_ppnl:                                   1.0E-07
 QS| GAPW|                   eps_fit:                                    1.0E-04
 QS| GAPW|                   eps_iso:                                    1.0E-12
 QS| GAPW|                   eps_svd:                                    1.0E-08
 QS| GAPW|                   eps_cpc:                                    1.0E-10
 QS| GAPW|   atom-r-grid: quadrature:                 GC_LOG                        
 QS| GAPW|      atom-s-grid:  max l :                                          8
 QS| GAPW|      max_l_rho0 :                                                   2


 ATOMIC KIND INFORMATION

  1. Atomic kind: F                                     Number of atoms:       2

     Orbital Basis Set                                                 def2-QZVP

       Number of orbital shell sets:                                          17
       Number of orbital shells:                                              17
       Number of primitive Cartesian functions:                               29
       Number of Cartesian basis functions:                                   72
       Number of spherical basis functions:                                   57
       Norm type:                                                              2

       Normalised Cartesian orbitals:

                        Set   Shell   Orbital            Exponent    Coefficient

                          1       1    1s           132535.973450       0.386108
                                                     19758.112588       0.724649
                                                      4485.199695       1.250455
                                                      1273.815102       2.015188
                                                       418.938312       3.040568
                                                       152.557220       4.212686
                                                        59.821525       5.009443
                                                        24.819077       4.546938

                          2       1    1s              100.744467       2.325033
                                                        30.103728       8.414408

                          3       1    1s               10.814283       4.250191

                          4       1    1s                4.817289       2.317459

                          5       1    1s                1.655933       1.040381

                          6       1    1s                0.648935       0.515301

                          7       1    1s                0.247781       0.250300

                          8       1    1px             240.966541       3.491668
                                                        57.020700       4.618861
                                                        18.126952       5.179649
                                                         6.645740       4.786262
                                                         2.637572       3.245784
                          8       1    1py             240.966541       3.491668
                                                        57.020700       4.618861
                                                        18.126952       5.179649
                                                         6.645740       4.786262
                                                         2.637572       3.245784
                          8       1    1pz             240.966541       3.491668
                                                        57.020700       4.618861
                                                        18.126952       5.179649
                                                         6.645740       4.786262
                                                         2.637572       3.245784

                          9       1    1px               1.063822       1.540019
                          9       1    1py               1.063822       1.540019
                          9       1    1pz               1.063822       1.540019

                         10       1    1px               0.419326       0.480983
                         10       1    1py               0.419326       0.480983
                         10       1    1pz               0.419326       0.480983

                         11       1    1px               0.157476       0.141403
                         11       1    1py               0.157476       0.141403
                         11       1    1pz               0.157476       0.141403

                         12       1    1dx2              5.014000      27.652349
                         12       1    1dxy              5.014000      47.895274
                         12       1    1dxz              5.014000      47.895274
                         12       1    1dy2              5.014000      27.652349
                         12       1    1dyz              5.014000      47.895274
                         12       1    1dz2              5.014000      27.652349

                         13       1    1dx2              1.725000       4.273566
                         13       1    1dxy              1.725000       7.402033
                         13       1    1dxz              1.725000       7.402033
                         13       1    1dy2              1.725000       4.273566
                         13       1    1dyz              1.725000       7.402033
                         13       1    1dz2              1.725000       4.273566

                         14       1    1dx2              0.586000       0.645997
                         14       1    1dxy              0.586000       1.118899
                         14       1    1dxz              0.586000       1.118899
                         14       1    1dy2              0.586000       0.645997
                         14       1    1dyz              0.586000       1.118899
                         14       1    1dz2              0.586000       0.645997

                         15       1    1fx3              3.562000      25.660538
                         15       1    1fx2y             3.562000      57.378707
                         15       1    1fx2z             3.562000      57.378707
                         15       1    1fxy2             3.562000      57.378707
                         15       1    1fxyz             3.562000      99.382837
                         15       1    1fxz2             3.562000      57.378707
                         15       1    1fy3              3.562000      25.660538
                         15       1    1fy2z             3.562000      57.378707
                         15       1    1fyz2             3.562000      57.378707
                         15       1    1fz3              3.562000      25.660538

                         16       1    1fx3              1.148000       2.008277
                         16       1    1fx2y             1.148000       4.490645
                         16       1    1fx2z             1.148000       4.490645
                         16       1    1fxy2             1.148000       4.490645
                         16       1    1fxyz             1.148000       7.778025
                         16       1    1fxz2             1.148000       4.490645
                         16       1    1fy3              1.148000       2.008277
                         16       1    1fy2z             1.148000       4.490645
                         16       1    1fyz2             1.148000       4.490645
                         16       1    1fz3              1.148000       2.008277

                         17       1    1gx4              2.376000      12.023008
                         17       1    1gx3y             2.376000      31.809888
                         17       1    1gx3z             2.376000      31.809888
                         17       1    1gx2y2            2.376000      41.066389
                         17       1    1gx2yz            2.376000      71.129073
                         17       1    1gx2z2            2.376000      41.066389
                         17       1    1gxy3             2.376000      31.809888
                         17       1    1gxy2z            2.376000      71.129073
                         17       1    1gxyz2            2.376000      71.129073
                         17       1    1gxz3             2.376000      31.809888
                         17       1    1gy4              2.376000      12.023008
                         17       1    1gy3z             2.376000      31.809888
                         17       1    1gy2z2            2.376000      41.066389
                         17       1    1gyz3             2.376000      31.809888
                         17       1    1gz4              2.376000      12.023008

     RI Auxiliary Basis Set                                                RI-5Z

       Number of orbital shell sets:                                          39
       Number of orbital shells:                                              39
       Number of primitive Cartesian functions:                               39
       Number of Cartesian basis functions:                                  287
       Number of spherical basis functions:                                  193
       Norm type:                                                              2

       Normalised Cartesian orbitals:

                        Set   Shell   Orbital            Exponent    Coefficient

                          1       1    1s              645.424000      91.262829

                          2       1    1s              138.618000      28.792198

                          3       1    1s               38.729500      11.064748

                          4       1    1s               21.723600       7.171482

                          5       1    1s                7.480350       3.223677

                          6       1    1s                4.284400       2.122402

                          7       1    1s                2.601990       1.460123

                          8       1    1s                1.340780       0.888031

                          9       1    1s                0.603875       0.488225

                         10       1    1s                0.299915       0.288841

                         11       1    1px             118.066000     554.748517
                         11       1    1py             118.066000     554.748517
                         11       1    1pz             118.066000     554.748517

                         12       1    1px              32.033700     108.629797
                         12       1    1py              32.033700     108.629797
                         12       1    1pz              32.033700     108.629797

                         13       1    1px              13.592500      37.201827
                         13       1    1py              13.592500      37.201827
                         13       1    1pz              13.592500      37.201827

                         14       1    1px               6.289910      14.198603
                         14       1    1py               6.289910      14.198603
                         14       1    1pz               6.289910      14.198603

                         15       1    1px               3.490790       6.801344
                         15       1    1py               3.490790       6.801344
                         15       1    1pz               3.490790       6.801344

                         16       1    1px               1.639320       2.644051
                         16       1    1py               1.639320       2.644051
                         16       1    1pz               1.639320       2.644051

                         17       1    1px               0.880017       1.214937
                         17       1    1py               0.880017       1.214937
                         17       1    1pz               0.880017       1.214937

                         18       1    1px               0.533003       0.649161
                         18       1    1py               0.533003       0.649161
                         18       1    1pz               0.533003       0.649161

                         19       1    1dx2             27.767600     552.842674
                         19       1    1dxy             27.767600     957.551601
                         19       1    1dxz             27.767600     957.551601
                         19       1    1dy2             27.767600     552.842674
                         19       1    1dyz             27.767600     957.551601
                         19       1    1dz2             27.767600     552.842674

                         20       1    1dx2              8.880760      75.196424
                         20       1    1dxy              8.880760     130.244027
                         20       1    1dxz              8.880760     130.244027
                         20       1    1dy2              8.880760      75.196424
                         20       1    1dyz              8.880760     130.244027
                         20       1    1dz2              8.880760      75.196424

                         21       1    1dx2              5.495020      32.460536
                         21       1    1dxy              5.495020      56.223298
                         21       1    1dxz              5.495020      56.223298
                         21       1    1dy2              5.495020      32.460536
                         21       1    1dyz              5.495020      56.223298
                         21       1    1dz2              5.495020      32.460536

                         22       1    1dx2              2.971120      11.066742
                         22       1    1dxy              2.971120      19.168160
                         22       1    1dxz              2.971120      19.168160
                         22       1    1dy2              2.971120      11.066742
                         22       1    1dyz              2.971120      19.168160
                         22       1    1dz2              2.971120      11.066742

                         23       1    1dx2              1.819720       4.692642
                         23       1    1dxy              1.819720       8.127895
                         23       1    1dxz              1.819720       8.127895
                         23       1    1dy2              1.819720       4.692642
                         23       1    1dyz              1.819720       8.127895
                         23       1    1dz2              1.819720       4.692642

                         24       1    1dx2              0.890528       1.343670
                         24       1    1dxy              0.890528       2.327305
                         24       1    1dxz              0.890528       2.327305
                         24       1    1dy2              0.890528       1.343670
                         24       1    1dyz              0.890528       2.327305
                         24       1    1dz2              0.890528       1.343670

                         25       1    1dx2              0.367580       0.285611
                         25       1    1dxy              0.367580       0.494693
                         25       1    1dxz              0.367580       0.494693
                         25       1    1dy2              0.367580       0.285611
                         25       1    1dyz              0.367580       0.494693
                         25       1    1dz2              0.367580       0.285611

                         26       1    1fx3             18.500300    1044.976886
                         26       1    1fx2y            18.500300    2336.639352
                         26       1    1fx2z            18.500300    2336.639352
                         26       1    1fxy2            18.500300    2336.639352
                         26       1    1fxyz            18.500300    4047.178077
                         26       1    1fxz2            18.500300    2336.639352
                         26       1    1fy3             18.500300    1044.976886
                         26       1    1fy2z            18.500300    2336.639352
                         26       1    1fyz2            18.500300    2336.639352
                         26       1    1fz3             18.500300    1044.976886

                         27       1    1fx3              8.608610     186.876105
                         27       1    1fx2y             8.608610     417.867675
                         27       1    1fx2z             8.608610     417.867675
                         27       1    1fxy2             8.608610     417.867675
                         27       1    1fxyz             8.608610     723.768044
                         27       1    1fxz2             8.608610     417.867675
                         27       1    1fy3              8.608610     186.876105
                         27       1    1fy2z             8.608610     417.867675
                         27       1    1fyz2             8.608610     417.867675
                         27       1    1fz3              8.608610     186.876105

                         28       1    1fx3              4.943880      53.654638
                         28       1    1fx2y             4.943880     119.975419
                         28       1    1fx2z             4.943880     119.975419
                         28       1    1fxy2             4.943880     119.975419
                         28       1    1fxyz             4.943880     207.803521
                         28       1    1fxz2             4.943880     119.975419
                         28       1    1fy3              4.943880      53.654638
                         28       1    1fy2z             4.943880     119.975419
                         28       1    1fyz2             4.943880     119.975419
                         28       1    1fz3              4.943880      53.654638

                         29       1    1fx3              2.814490      15.104411
                         29       1    1fx2y             2.814490      33.774490
                         29       1    1fx2z             2.814490      33.774490
                         29       1    1fxy2             2.814490      33.774490
                         29       1    1fxyz             2.814490      58.499133
                         29       1    1fxz2             2.814490      33.774490
                         29       1    1fy3              2.814490      15.104411
                         29       1    1fy2z             2.814490      33.774490
                         29       1    1fyz2             2.814490      33.774490
                         29       1    1fz3              2.814490      15.104411

                         30       1    1fx3              1.581520       4.129263
                         30       1    1fx2y             1.581520       9.233312
                         30       1    1fx2z             1.581520       9.233312
                         30       1    1fxy2             1.581520       9.233312
                         30       1    1fxyz             1.581520      15.992565
                         30       1    1fxz2             1.581520       9.233312
                         30       1    1fy3              1.581520       4.129263
                         30       1    1fy2z             1.581520       9.233312
                         30       1    1fyz2             1.581520       9.233312
                         30       1    1fz3              1.581520       4.129263

                         31       1    1fx3              0.809465       0.914956
                         31       1    1fx2y             0.809465       2.045903
                         31       1    1fx2z             0.809465       2.045903
                         31       1    1fxy2             0.809465       2.045903
                         31       1    1fxyz             0.809465       3.543609
                         31       1    1fxz2             0.809465       2.045903
                         31       1    1fy3              0.809465       0.914956
                         31       1    1fy2z             0.809465       2.045903
                         31       1    1fyz2             0.809465       2.045903
                         31       1    1fz3              0.809465       0.914956

                         32       1    1gx4              9.163700     492.187181
                         32       1    1gx3y             9.163700    1302.204879
                         32       1    1gx3z             9.163700    1302.204879
                         32       1    1gx2y2            9.163700    1681.139270
                         32       1    1gx2yz            9.163700    2911.818631
                         32       1    1gx2z2            9.163700    1681.139270
                         32       1    1gxy3             9.163700    1302.204879
                         32       1    1gxy2z            9.163700    2911.818631
                         32       1    1gxyz2            9.163700    2911.818631
                         32       1    1gxz3             9.163700    1302.204879
                         32       1    1gy4              9.163700     492.187181
                         32       1    1gy3z             9.163700    1302.204879
                         32       1    1gy2z2            9.163700    1681.139270
                         32       1    1gyz3             9.163700    1302.204879
                         32       1    1gz4              9.163700     492.187181

                         33       1    1gx4              4.936690      89.822271
                         33       1    1gx3y             4.936690     237.647391
                         33       1    1gx3z             4.936690     237.647391
                         33       1    1gx2y2            4.936690     306.801463
                         33       1    1gx2yz            4.936690     531.395721
                         33       1    1gx2z2            4.936690     306.801463
                         33       1    1gxy3             4.936690     237.647391
                         33       1    1gxy2z            4.936690     531.395721
                         33       1    1gxyz2            4.936690     531.395721
                         33       1    1gxz3             4.936690     237.647391
                         33       1    1gy4              4.936690      89.822271
                         33       1    1gy3z             4.936690     237.647391
                         33       1    1gy2z2            4.936690     306.801463
                         33       1    1gyz3             4.936690     237.647391
                         33       1    1gz4              4.936690      89.822271

                         34       1    1gx4              2.714870      17.347835
                         34       1    1gx3y             2.714870      45.898057
                         34       1    1gx3z             2.714870      45.898057
                         34       1    1gx2y2            2.714870      59.254137
                         34       1    1gx2yz            2.714870     102.631176
                         34       1    1gx2z2            2.714870      59.254137
                         34       1    1gxy3             2.714870      45.898057
                         34       1    1gxy2z            2.714870     102.631176
                         34       1    1gxyz2            2.714870     102.631176
                         34       1    1gxz3             2.714870      45.898057
                         34       1    1gy4              2.714870      17.347835
                         34       1    1gy3z             2.714870      45.898057
                         34       1    1gy2z2            2.714870      59.254137
                         34       1    1gyz3             2.714870      45.898057
                         34       1    1gz4              2.714870      17.347835

                         35       1    1gx4              1.319190       2.383859
                         35       1    1gx3y             1.319190       6.307099
                         35       1    1gx3z             1.319190       6.307099
                         35       1    1gx2y2            1.319190       8.142430
                         35       1    1gx2yz            1.319190      14.103102
                         35       1    1gx2z2            1.319190       8.142430
                         35       1    1gxy3             1.319190       6.307099
                         35       1    1gxy2z            1.319190      14.103102
                         35       1    1gxyz2            1.319190      14.103102
                         35       1    1gxz3             1.319190       6.307099
                         35       1    1gy4              1.319190       2.383859
                         35       1    1gy3z             1.319190       6.307099
                         35       1    1gy2z2            1.319190       8.142430
                         35       1    1gyz3             1.319190       6.307099
                         35       1    1gz4              1.319190       2.383859

                         36       1    1hx5              7.104650     434.368079
                         36       1    1hx4y             7.104650    1303.104237
                         36       1    1hx4z             7.104650    1303.104237
                         36       1    1hx3y2            7.104650    1990.524601
                         36       1    1hx3yz            7.104650    3447.689742
                         36       1    1hx3z2            7.104650    1990.524601
                         36       1    1hx2y3            7.104650    1990.524601
                         36       1    1hx2y2z           7.104650    4450.948318
                         36       1    1hx2yz2           7.104650    4450.948318
                         36       1    1hx2z3            7.104650    1990.524601
                         36       1    1hxy4             7.104650    1303.104237
                         36       1    1hxy3z            7.104650    3447.689742
                         36       1    1hxy2z2           7.104650    4450.948318
                         36       1    1hxyz3            7.104650    3447.689742
                         36       1    1hxz4             7.104650    1303.104237
                         36       1    1hy5              7.104650     434.368079
                         36       1    1hy4z             7.104650    1303.104237
                         36       1    1hy3z2            7.104650    1990.524601
                         36       1    1hy2z3            7.104650    1990.524601
                         36       1    1hyz4             7.104650    1303.104237
                         36       1    1hz5              7.104650     434.368079

                         37       1    1hx5              4.172870      77.047304
                         37       1    1hx4y             4.172870     231.141911
                         37       1    1hx4z             4.172870     231.141911
                         37       1    1hx3y2            4.172870     353.075102
                         37       1    1hx3yz            4.172870     611.544015
                         37       1    1hx3z2            4.172870     353.075102
                         37       1    1hx2y3            4.172870     353.075102
                         37       1    1hx2y2z           4.172870     789.499928
                         37       1    1hx2yz2           4.172870     789.499928
                         37       1    1hx2z3            4.172870     353.075102
                         37       1    1hxy4             4.172870     231.141911
                         37       1    1hxy3z            4.172870     611.544015
                         37       1    1hxy2z2           4.172870     789.499928
                         37       1    1hxyz3            4.172870     611.544015
                         37       1    1hxz4             4.172870     231.141911
                         37       1    1hy5              4.172870      77.047304
                         37       1    1hy4z             4.172870     231.141911
                         37       1    1hy3z2            4.172870     353.075102
                         37       1    1hy2z3            4.172870     353.075102
                         37       1    1hyz4             4.172870     231.141911
                         37       1    1hz5              4.172870      77.047304

                         38       1    1hx5              2.200100       9.622370
                         38       1    1hx4y             2.200100      28.867109
                         38       1    1hx4z             2.200100      28.867109
                         38       1    1hx3y2            2.200100      44.095237
                         38       1    1hx3yz            2.200100      76.375191
                         38       1    1hx3z2            2.200100      44.095237
                         38       1    1hx2y3            2.200100      44.095237
                         38       1    1hx2y2z           2.200100      98.599948
                         38       1    1hx2yz2           2.200100      98.599948
                         38       1    1hx2z3            2.200100      44.095237
                         38       1    1hxy4             2.200100      28.867109
                         38       1    1hxy3z            2.200100      76.375191
                         38       1    1hxy2z2           2.200100      98.599948
                         38       1    1hxyz3            2.200100      76.375191
                         38       1    1hxz4             2.200100      28.867109
                         38       1    1hy5              2.200100       9.622370
                         38       1    1hy4z             2.200100      28.867109
                         38       1    1hy3z2            2.200100      44.095237
                         38       1    1hy2z3            2.200100      44.095237
                         38       1    1hyz4             2.200100      28.867109
                         38       1    1hz5              2.200100       9.622370

                         39       1    1ix6              4.223720      99.319499
                         39       1    1ix5y             4.223720     329.405512
                         39       1    1ix5z             4.223720     329.405512
                         39       1    1ix4y2            4.223720     570.547084
                         39       1    1ix4yz            4.223720     988.216537
                         39       1    1ix4z2            4.223720     570.547084
                         39       1    1ix3y3            4.223720     675.080413
                         39       1    1ix3y2z           4.223720    1509.525694
                         39       1    1ix3yz2           4.223720    1509.525694
                         39       1    1ix3z3            4.223720     675.080413
                         39       1    1ix2y4            4.223720     570.547084
                         39       1    1ix2y3z           4.223720    1509.525694
                         39       1    1ix2y2z2          4.223720    1948.789292
                         39       1    1ix2yz3           4.223720    1509.525694
                         39       1    1ix2z4            4.223720     570.547084
                         39       1    1ixy5             4.223720     329.405512
                         39       1    1ixy4z            4.223720     988.216537
                         39       1    1ixy3z2           4.223720    1509.525694
                         39       1    1ixy2z3           4.223720    1509.525694
                         39       1    1ixyz4            4.223720     988.216537
                         39       1    1ixz5             4.223720     329.405512
                         39       1    1iy6              4.223720      99.319499
                         39       1    1iy5z             4.223720     329.405512
                         39       1    1iy4z2            4.223720     570.547084
                         39       1    1iy3z3            4.223720     675.080413
                         39       1    1iy2z4            4.223720     570.547084
                         39       1    1iyz5             4.223720     329.405512
                         39       1    1iz6              4.223720      99.319499

     The atoms of this atomic kind are PAW atoms (GAPW):
       Hard Gaussian function radius:                                      1.512
       Rho0 radius:                                                        1.512
       Maximum GTO radius used for PAW projector construction:            24.566

     GAPW Soft Basis Set                                          def2-QZVP_soft

       Number of orbital shell sets:                                          17
       Number of orbital shells:                                              17
       Number of primitive Cartesian functions:                               12
       Number of Cartesian basis functions:                                   72
       Number of spherical basis functions:                                   57
       Norm type:                                                              2

       Normalised Cartesian orbitals:

                        Set   Shell   Orbital            Exponent    Coefficient

                          1       1    1s         

                          2       1    1s         

                          3       1    1s         

                          4       1    1s         

                          5       1    1s                1.655933       1.040381

                          6       1    1s                0.648935       0.515301

                          7       1    1s                0.247781       0.250300

                          8       1    1px               2.637572       3.245784
                          8       1    1py               2.637572       3.245784
                          8       1    1pz               2.637572       3.245784

                          9       1    1px               1.063822       1.540019
                          9       1    1py               1.063822       1.540019
                          9       1    1pz               1.063822       1.540019

                         10       1    1px               0.419326       0.480983
                         10       1    1py               0.419326       0.480983
                         10       1    1pz               0.419326       0.480983

                         11       1    1px               0.157476       0.141403
                         11       1    1py               0.157476       0.141403
                         11       1    1pz               0.157476       0.141403

                         12       1    1dx2       
                         12       1    1dxy       
                         12       1    1dxz       
                         12       1    1dy2       
                         12       1    1dyz       
                         12       1    1dz2       

                         13       1    1dx2              1.725000       4.273566
                         13       1    1dxy              1.725000       7.402033
                         13       1    1dxz              1.725000       7.402033
                         13       1    1dy2              1.725000       4.273566
                         13       1    1dyz              1.725000       7.402033
                         13       1    1dz2              1.725000       4.273566

                         14       1    1dx2              0.586000       0.645997
                         14       1    1dxy              0.586000       1.118899
                         14       1    1dxz              0.586000       1.118899
                         14       1    1dy2              0.586000       0.645997
                         14       1    1dyz              0.586000       1.118899
                         14       1    1dz2              0.586000       0.645997

                         15       1    1fx3              3.562000      25.660538
                         15       1    1fx2y             3.562000      57.378707
                         15       1    1fx2z             3.562000      57.378707
                         15       1    1fxy2             3.562000      57.378707
                         15       1    1fxyz             3.562000      99.382837
                         15       1    1fxz2             3.562000      57.378707
                         15       1    1fy3              3.562000      25.660538
                         15       1    1fy2z             3.562000      57.378707
                         15       1    1fyz2             3.562000      57.378707
                         15       1    1fz3              3.562000      25.660538

                         16       1    1fx3              1.148000       2.008277
                         16       1    1fx2y             1.148000       4.490645
                         16       1    1fx2z             1.148000       4.490645
                         16       1    1fxy2             1.148000       4.490645
                         16       1    1fxyz             1.148000       7.778025
                         16       1    1fxz2             1.148000       4.490645
                         16       1    1fy3              1.148000       2.008277
                         16       1    1fy2z             1.148000       4.490645
                         16       1    1fyz2             1.148000       4.490645
                         16       1    1fz3              1.148000       2.008277

                         17       1    1gx4              2.376000      12.023008
                         17       1    1gx3y             2.376000      31.809888
                         17       1    1gx3z             2.376000      31.809888
                         17       1    1gx2y2            2.376000      41.066389
                         17       1    1gx2yz            2.376000      71.129073
                         17       1    1gx2z2            2.376000      41.066389
                         17       1    1gxy3             2.376000      31.809888
                         17       1    1gxy2z            2.376000      71.129073
                         17       1    1gxyz2            2.376000      71.129073
                         17       1    1gxz3             2.376000      31.809888
                         17       1    1gy4              2.376000      12.023008
                         17       1    1gy3z             2.376000      31.809888
                         17       1    1gy2z2            2.376000      41.066389
                         17       1    1gyz3             2.376000      31.809888
                         17       1    1gz4              2.376000      12.023008

     AE Potential information for                                            ALL

       Description:                                       All-electron potential
                                          Krack, Parrinello, PCCP 2, 2105 (2000)

       Gaussian exponent of the core charge distribution:              10.470541
       Electronic configuration (s p d ...):                           4   5   0

  2. Atomic kind: Mg                                    Number of atoms:       1

     Orbital Basis Set                                                 def2-QZVP

       Number of orbital shell sets:                                          19
       Number of orbital shells:                                              19
       Number of primitive Cartesian functions:                               37
       Number of Cartesian basis functions:                                   58
       Number of spherical basis functions:                                   51
       Norm type:                                                              2

       Normalised Cartesian orbitals:

                        Set   Shell   Orbital            Exponent    Coefficient

                          1       1    1s           605967.787530       0.257226
                                                     90569.094692       0.482047
                                                     20574.252844       0.835599
                                                      5818.628486       1.366366
                                                      1895.629608       2.127534
                                                       683.459410       3.135466
                                                       266.182198       4.276339
                                                       110.112200       5.096899
                                                        47.777041       4.796221
                                                        21.542166       2.874698

                          2       1    1s              174.121364       0.987018
                                                        53.484972       3.401293
                                                        20.500213       5.290746

                          3       1    1s                9.805683       3.949285

                          4       1    1s                3.540299       1.839459

                          5       1    1s                1.545085       0.987698

                          6       1    1s                0.665402       0.525077

                          7       1    1s                0.143554       0.166216

                          8       1    1s                0.066625       0.093462

                          9       1    1s                0.029773       0.051083

                         10       1    1px             893.204608       2.515826
                                                       211.782583       3.549722
                                                        68.443201       4.502320
                                                        25.727265       4.916948
                                                        10.606634       4.403779
                                                         4.593413       2.897035
                                                         2.010047       1.312849
                                                         0.873848       0.343401
                         10       1    1py             893.204608       2.515826
                                                       211.782583       3.549722
                                                        68.443201       4.502320
                                                        25.727265       4.916948
                                                        10.606634       4.403779
                                                         4.593413       2.897035
                                                         2.010047       1.312849
                                                         0.873848       0.343401
                         10       1    1pz             893.204608       2.515826
                                                       211.782583       3.549722
                                                        68.443201       4.502320
                                                        25.727265       4.916948
                                                        10.606634       4.403779
                                                         4.593413       2.897035
                                                         2.010047       1.312849
                                                         0.873848       0.343401

                         11       1    1px               0.356151       0.392177
                         11       1    1py               0.356151       0.392177
                         11       1    1pz               0.356151       0.392177

                         12       1    1px               0.189960       0.178758
                         12       1    1py               0.189960       0.178758
                         12       1    1pz               0.189960       0.178758

                         13       1    1px               0.074580       0.055554
                         13       1    1py               0.074580       0.055554
                         13       1    1pz               0.074580       0.055554

                         14       1    1px               0.029222       0.017221
                         14       1    1py               0.029222       0.017221
                         14       1    1pz               0.029222       0.017221

                         15       1    1dx2              3.810000      17.101262
                         15       1    1dxy              3.810000      29.620255
                         15       1    1dxz              3.810000      29.620255
                         15       1    1dy2              3.810000      17.101262
                         15       1    1dyz              3.810000      29.620255
                         15       1    1dz2              3.810000      17.101262

                         16       1    1dx2              0.650000       0.774476
                         16       1    1dxy              0.650000       1.341431
                         16       1    1dxz              0.650000       1.341431
                         16       1    1dy2              0.650000       0.774476
                         16       1    1dyz              0.650000       1.341431
                         16       1    1dz2              0.650000       0.774476

                         17       1    1dx2              0.200000       0.098449
                         17       1    1dxy              0.200000       0.170519
                         17       1    1dxz              0.200000       0.170519
                         17       1    1dy2              0.200000       0.098449
                         17       1    1dyz              0.200000       0.170519
                         17       1    1dz2              0.200000       0.098449

                         18       1    1dx2              0.052000       0.009320
                         18       1    1dxy              0.052000       0.016143
                         18       1    1dxz              0.052000       0.016143
                         18       1    1dy2              0.052000       0.009320
                         18       1    1dyz              0.052000       0.016143
                         18       1    1dz2              0.052000       0.009320

                         19       1    1fx3              0.160000       0.023836
                         19       1    1fx2y             0.160000       0.053298
                         19       1    1fx2z             0.160000       0.053298
                         19       1    1fxy2             0.160000       0.053298
                         19       1    1fxyz             0.160000       0.092315
                         19       1    1fxz2             0.160000       0.053298
                         19       1    1fy3              0.160000       0.023836
                         19       1    1fy2z             0.160000       0.053298
                         19       1    1fyz2             0.160000       0.053298
                         19       1    1fz3              0.160000       0.023836

     RI Auxiliary Basis Set                                                RI-5Z

       Number of orbital shell sets:                                          48
       Number of orbital shells:                                              48
       Number of primitive Cartesian functions:                               48
       Number of Cartesian basis functions:                                  335
       Number of spherical basis functions:                                  230
       Norm type:                                                              2

       Normalised Cartesian orbitals:

                        Set   Shell   Orbital            Exponent    Coefficient

                          1       1    1s              540.416000      79.883345

                          2       1    1s              102.127000      22.896311

                          3       1    1s               43.111400      11.990966

                          4       1    1s               13.476700       5.013001

                          5       1    1s                7.375560       3.189748

                          6       1    1s                2.606800       1.462146

                          7       1    1s                1.298970       0.867180

                          8       1    1s                0.584075       0.476169

                          9       1    1s                0.330108       0.310386

                         10       1    1s                0.180505       0.197368

                         11       1    1s                0.119148       0.144536

                         12       1    1s                0.069145       0.096101

                         13       1    1px             123.479000     586.720777
                         13       1    1py             123.479000     586.720777
                         13       1    1pz             123.479000     586.720777

                         14       1    1px              33.483200     114.808432
                         14       1    1py              33.483200     114.808432
                         14       1    1pz              33.483200     114.808432

                         15       1    1px              12.336600      32.955996
                         15       1    1py              12.336600      32.955996
                         15       1    1pz              12.336600      32.955996

                         16       1    1px               5.613380      12.316027
                         16       1    1py               5.613380      12.316027
                         16       1    1pz               5.613380      12.316027

                         17       1    1px               2.423950       4.311165
                         17       1    1py               2.423950       4.311165
                         17       1    1pz               2.423950       4.311165

                         18       1    1px               1.157890       1.712081
                         18       1    1py               1.157890       1.712081
                         18       1    1pz               1.157890       1.712081

                         19       1    1px               0.531815       0.647352
                         19       1    1py               0.531815       0.647352
                         19       1    1pz               0.531815       0.647352

                         20       1    1px               0.293408       0.307808
                         20       1    1py               0.293408       0.307808
                         20       1    1pz               0.293408       0.307808

                         21       1    1px               0.194135       0.183683
                         21       1    1py               0.194135       0.183683
                         21       1    1pz               0.194135       0.183683

                         22       1    1px               0.130156       0.111435
                         22       1    1py               0.130156       0.111435
                         22       1    1pz               0.130156       0.111435

                         23       1    1px               0.084593       0.065029
                         23       1    1py               0.084593       0.065029
                         23       1    1pz               0.084593       0.065029

                         24       1    1dx2             28.354200     573.442535
                         24       1    1dxy             28.354200     993.231605
                         24       1    1dxz             28.354200     993.231605
                         24       1    1dy2             28.354200     573.442535
                         24       1    1dyz             28.354200     993.231605
                         24       1    1dz2             28.354200     573.442535

                         25       1    1dx2              8.248800      66.083542
                         25       1    1dxy              8.248800     114.460052
                         25       1    1dxz              8.248800     114.460052
                         25       1    1dy2              8.248800      66.083542
                         25       1    1dyz              8.248800     114.460052
                         25       1    1dz2              8.248800      66.083542

                         26       1    1dx2              2.956150      10.969347
                         26       1    1dxy              2.956150      18.999466
                         26       1    1dxz              2.956150      18.999466
                         26       1    1dy2              2.956150      10.969347
                         26       1    1dyz              2.956150      18.999466
                         26       1    1dz2              2.956150      10.969347

                         27       1    1dx2              1.287300       2.560643
                         27       1    1dxy              1.287300       4.435164
                         27       1    1dxz              1.287300       4.435164
                         27       1    1dy2              1.287300       2.560643
                         27       1    1dyz              1.287300       4.435164
                         27       1    1dz2              1.287300       2.560643

                         28       1    1dx2              0.583460       0.641105
                         28       1    1dxy              0.583460       1.110426
                         28       1    1dxz              0.583460       1.110426
                         28       1    1dy2              0.583460       0.641105
                         28       1    1dyz              0.583460       1.110426
                         28       1    1dz2              0.583460       0.641105

                         29       1    1dx2              0.344419       0.254866
                         29       1    1dxy              0.344419       0.441441
                         29       1    1dxz              0.344419       0.441441
                         29       1    1dy2              0.344419       0.254866
                         29       1    1dyz              0.344419       0.441441
                         29       1    1dz2              0.344419       0.254866

                         30       1    1dx2              0.222430       0.118576
                         30       1    1dxy              0.222430       0.205380
                         30       1    1dxz              0.222430       0.205380
                         30       1    1dy2              0.222430       0.118576
                         30       1    1dyz              0.222430       0.205380
                         30       1    1dz2              0.222430       0.118576

                         31       1    1dx2              0.151929       0.060853
                         31       1    1dxy              0.151929       0.105400
                         31       1    1dxz              0.151929       0.105400
                         31       1    1dy2              0.151929       0.060853
                         31       1    1dyz              0.151929       0.105400
                         31       1    1dz2              0.151929       0.060853

                         32       1    1dx2              0.091250       0.024935
                         32       1    1dxy              0.091250       0.043189
                         32       1    1dxz              0.091250       0.043189
                         32       1    1dy2              0.091250       0.024935
                         32       1    1dyz              0.091250       0.043189
                         32       1    1dz2              0.091250       0.024935

                         33       1    1fx3              6.950670     115.482043
                         33       1    1fx2y             6.950670     258.225697
                         33       1    1fx2z             6.950670     258.225697
                         33       1    1fxy2             6.950670     258.225697
                         33       1    1fxyz             6.950670     447.260028
                         33       1    1fxz2             6.950670     258.225697
                         33       1    1fy3              6.950670     115.482043
                         33       1    1fy2z             6.950670     258.225697
                         33       1    1fyz2             6.950670     258.225697
                         33       1    1fz3              6.950670     115.482043

                         34       1    1fx3              2.762140      14.479623
                         34       1    1fx2y             2.762140      32.377421
                         34       1    1fx2z             2.762140      32.377421
                         34       1    1fxy2             2.762140      32.377421
                         34       1    1fxyz             2.762140      56.079338
                         34       1    1fxz2             2.762140      32.377421
                         34       1    1fy3              2.762140      14.479623
                         34       1    1fy2z             2.762140      32.377421
                         34       1    1fyz2             2.762140      32.377421
                         34       1    1fz3              2.762140      14.479623

                         35       1    1fx3              1.250720       2.435368
                         35       1    1fx2y             1.250720       5.445649
                         35       1    1fx2z             1.250720       5.445649
                         35       1    1fxy2             1.250720       5.445649
                         35       1    1fxyz             1.250720       9.432141
                         35       1    1fxz2             1.250720       5.445649
                         35       1    1fy3              1.250720       2.435368
                         35       1    1fy2z             1.250720       5.445649
                         35       1    1fyz2             1.250720       5.445649
                         35       1    1fz3              1.250720       2.435368

                         36       1    1fx3              0.575997       0.425500
                         36       1    1fx2y             0.575997       0.951448
                         36       1    1fx2z             0.575997       0.951448
                         36       1    1fxy2             0.575997       0.951448
                         36       1    1fxyz             0.575997       1.647956
                         36       1    1fxz2             0.575997       0.951448
                         36       1    1fy3              0.575997       0.425500
                         36       1    1fy2z             0.575997       0.951448
                         36       1    1fyz2             0.575997       0.951448
                         36       1    1fz3              0.575997       0.425500

                         37       1    1fx3              0.334257       0.125065
                         37       1    1fx2y             0.334257       0.279654
                         37       1    1fx2z             0.334257       0.279654
                         37       1    1fxy2             0.334257       0.279654
                         37       1    1fxyz             0.334257       0.484374
                         37       1    1fxz2             0.334257       0.279654
                         37       1    1fy3              0.334257       0.125065
                         37       1    1fy2z             0.334257       0.279654
                         37       1    1fyz2             0.334257       0.279654
                         37       1    1fz3              0.334257       0.125065

                         38       1    1fx3              0.216355       0.046998
                         38       1    1fx2y             0.216355       0.105091
                         38       1    1fx2z             0.216355       0.105091
                         38       1    1fxy2             0.216355       0.105091
                         38       1    1fxyz             0.216355       0.182023
                         38       1    1fxz2             0.216355       0.105091
                         38       1    1fy3              0.216355       0.046998
                         38       1    1fy2z             0.216355       0.105091
                         38       1    1fyz2             0.216355       0.105091
                         38       1    1fz3              0.216355       0.046998

                         39       1    1fx3              0.126090       0.013947
                         39       1    1fx2y             0.126090       0.031187
                         39       1    1fx2z             0.126090       0.031187
                         39       1    1fxy2             0.126090       0.031187
                         39       1    1fxyz             0.126090       0.054017
                         39       1    1fxz2             0.126090       0.031187
                         39       1    1fy3              0.126090       0.013947
                         39       1    1fy2z             0.126090       0.031187
                         39       1    1fyz2             0.126090       0.031187
                         39       1    1fz3              0.126090       0.013947

                         40       1    1gx4              2.550100      14.603863
                         40       1    1gx3y             2.550100      38.638190
                         40       1    1gx3z             2.550100      38.638190
                         40       1    1gx2y2            2.550100      49.881689
                         40       1    1gx2yz            2.550100      86.397620
                         40       1    1gx2z2            2.550100      49.881689
                         40       1    1gxy3             2.550100      38.638190
                         40       1    1gxy2z            2.550100      86.397620
                         40       1    1gxyz2            2.550100      86.397620
                         40       1    1gxz3             2.550100      38.638190
                         40       1    1gy4              2.550100      14.603863
                         40       1    1gy3z             2.550100      38.638190
                         40       1    1gy2z2            2.550100      49.881689
                         40       1    1gyz3             2.550100      38.638190
                         40       1    1gz4              2.550100      14.603863

                         41       1    1gx4              1.072600       1.349396
                         41       1    1gx3y             1.072600       3.570166
                         41       1    1gx3z             1.072600       3.570166
                         41       1    1gx2y2            1.072600       4.609064
                         41       1    1gx2yz            1.072600       7.983133
                         41       1    1gx2z2            1.072600       4.609064
                         41       1    1gxy3             1.072600       3.570166
                         41       1    1gxy2z            1.072600       7.983133
                         41       1    1gxyz2            1.072600       7.983133
                         41       1    1gxz3             1.072600       3.570166
                         41       1    1gy4              1.072600       1.349396
                         41       1    1gy3z             1.072600       3.570166
                         41       1    1gy2z2            1.072600       4.609064
                         41       1    1gyz3             1.072600       3.570166
                         41       1    1gz4              1.072600       1.349396

                         42       1    1gx4              0.552581       0.217783
                         42       1    1gx3y             0.552581       0.576200
                         42       1    1gx3z             0.552581       0.576200
                         42       1    1gx2y2            0.552581       0.743871
                         42       1    1gx2yz            0.552581       1.288423
                         42       1    1gx2z2            0.552581       0.743871
                         42       1    1gxy3             0.552581       0.576200
                         42       1    1gxy2z            0.552581       1.288423
                         42       1    1gxyz2            0.552581       1.288423
                         42       1    1gxz3             0.552581       0.576200
                         42       1    1gy4              0.552581       0.217783
                         42       1    1gy3z             0.552581       0.576200
                         42       1    1gy2z2            0.552581       0.743871
                         42       1    1gyz3             0.552581       0.576200
                         42       1    1gz4              0.552581       0.217783

                         43       1    1gx4              0.308050       0.043666
                         43       1    1gx3y             0.308050       0.115529
                         43       1    1gx3z             0.308050       0.115529
                         43       1    1gx2y2            0.308050       0.149148
                         43       1    1gx2yz            0.308050       0.258332
                         43       1    1gx2z2            0.308050       0.149148
                         43       1    1gxy3             0.308050       0.115529
                         43       1    1gxy2z            0.308050       0.258332
[...]
 flops    51 x    57 x    15               959310     100.0%      0.0%      0.0%
 flops    57 x    51 x    15               959310     100.0%      0.0%      0.0%
 flops    57 x    57 x    57              1481544     100.0%      0.0%      0.0%
 flops   165 x   114 x    51              1918620     100.0%      0.0%      0.0%
 flops   165 x    51 x    57              1918620     100.0%      0.0%      0.0%
 flops    57 x    57 x    15              3216510     100.0%      0.0%      0.0%
 flops   165 x   114 x    57              4288680     100.0%      0.0%      0.0%
 flops   230 x   230 x   230            340676000     100.0%      0.0%      0.0%
 flops   230 x   193 x   230            571743200     100.0%      0.0%      0.0%
 flops   230 x   230 x   193            571743200     100.0%      0.0%      0.0%
 flops   193 x   230 x   230            571743200     100.0%      0.0%      0.0%
 flops   230 x   193 x   193            959534240     100.0%      0.0%      0.0%
 flops   193 x   193 x   230            959534240     100.0%      0.0%      0.0%
 flops   193 x   230 x   193            959534240     100.0%      0.0%      0.0%
 flops   193 x   193 x   193           1610348768     100.0%      0.0%      0.0%
 flops   616 x    51 x    51           1794481920     100.0%      0.0%      0.0%
 flops    51 x   816 x    51           1901684736     100.0%      0.0%      0.0%
 flops    51 x   765 x    51           2674244160     100.0%      0.0%      0.0%
 flops   616 x   114 x    51           4011194880     100.0%      0.0%      0.0%
 flops   616 x    51 x    57           4011194880     100.0%      0.0%      0.0%
 flops   616 x    51 x   230           4046380800     100.0%      0.0%      0.0%
 flops    51 x   912 x    51           4250824704     100.0%      0.0%      0.0%
 flops    51 x   816 x    57           4250824704     100.0%      0.0%      0.0%
 flops    57 x   816 x    51           4326732288     100.0%      0.0%      0.0%
 flops    51 x   855 x    51           5977722240     100.0%      0.0%      0.0%
 flops    51 x   765 x    57           5977722240     100.0%      0.0%      0.0%
 flops    57 x   765 x    51           6084467280     100.0%      0.0%      0.0%
 flops   616 x    51 x   193           6790882560     100.0%      0.0%      0.0%
 flops   616 x   114 x    57           8966200320     100.0%      0.0%      0.0%
 flops   616 x   114 x   230           9044851200     100.0%      0.0%      0.0%
 flops    51 x   912 x    57           9501843456     100.0%      0.0%      0.0%
 flops    57 x   912 x    51           9671519232     100.0%      0.0%      0.0%
 flops    57 x   816 x    57           9671519232     100.0%      0.0%      0.0%
 flops    51 x   855 x    57          13361967360     100.0%      0.0%      0.0%
 flops    57 x   855 x    51          13600573920     100.0%      0.0%      0.0%
 flops    57 x   765 x    57          13600573920     100.0%      0.0%      0.0%
 flops   230 x   230 x   660          14663880000     100.0%      0.0%      0.0%
 flops   616 x   114 x   193          15179619840     100.0%      0.0%      0.0%
 flops    57 x   912 x    57          21618690048     100.0%      0.0%      0.0%
 flops   230 x   193 x   660          24609816000     100.0%      0.0%      0.0%
 flops   193 x   230 x   660          24609816000     100.0%      0.0%      0.0%
 flops   230 x   230 x   693          25661790000     100.0%      0.0%      0.0%
 flops    57 x   855 x    57          30401282880     100.0%      0.0%      0.0%
 flops   193 x   193 x   660          41301691200     100.0%      0.0%      0.0%
 flops   230 x   193 x   693          43067178000     100.0%      0.0%      0.0%
 flops   193 x   230 x   693          43067178000     100.0%      0.0%      0.0%
 flops   193 x   193 x   693          72277959600     100.0%      0.0%      0.0%
 flops inhomo. stacks                           0       0.0%      0.0%      0.0%
 flops total                       506.539246E+09     100.0%      0.0%      0.0%
 flops max/rank                     52.499417E+09     100.0%      0.0%      0.0%
 matmuls inhomo. stacks                         0       0.0%      0.0%      0.0%
 matmuls total                              41139     100.0%      0.0%      0.0%
 number of processed stacks                 16624     100.0%      0.0%      0.0%
 average stack size                                     2.5       0.0       0.0
 marketing flops                   510.155751E+09
 -------------------------------------------------------------------------------
 # multiplications                            910
 max memory usage/rank             539.602944E+06
 # max total images/rank                        5
 # max 3D layers                                1
 # MPI messages exchanged                 1144440
 MPI messages size (bytes):
  total size                        13.314224E+09
  min size                           0.000000E+00
  max size                           1.133440E+06
  average size                      11.633833E+03
 MPI breakdown and total messages size (bytes):
             size <=      128             1105764                        0
       128 < size <=     8192                  33                   201960
      8192 < size <=    32768                5190                115936920
     32768 < size <=   131072                7623                468293760
    131072 < size <=  4194304               25830              12729851904
   4194304 < size <= 16777216                   0                        0
  16777216 < size                               0                        0
 -------------------------------------------------------------------------------

 *** WARNING in dbcsr_mm.F:278 :: Using a non-square number of MPI ranks ***
 *** might lead to poor performance. Used ranks: 40 Suggested: 36 81     ***

 -------------------------------------------------------------------------------
 -                                                                             -
 -                      DBCSR MESSAGE PASSING PERFORMANCE                      -
 -                                                                             -
 -------------------------------------------------------------------------------

 ROUTINE             CALLS      AVE VOLUME [Bytes]
 MP_Group               45
 MP_Bcast               53                     12.
 MP_Allreduce         5240                      8.
 MP_Alltoall          2896                  75906.
 MP_Wait             63456
 MP_ISend            62652                  33007.
 MP_IRecv            62602                  14774.
 MP_Memory           96868
 -------------------------------------------------------------------------------


 MEMORY| Estimated peak process memory [MiB]                                 513

 -------------------------------------------------------------------------------
 ----                             MULTIGRID INFO                            ----
 -------------------------------------------------------------------------------
 count for grid        1:         619774          cutoff [a.u.]          200.00
 count for grid        2:          54669          cutoff [a.u.]           66.67
 count for grid        3:          31241          cutoff [a.u.]           22.22
 count for grid        4:          16880          cutoff [a.u.]            7.41
 total gridlevel count  :         722564

 -------------------------------------------------------------------------------
 -                                                                             -
 -                         MESSAGE PASSING PERFORMANCE                         -
 -                                                                             -
 -------------------------------------------------------------------------------

 ROUTINE             CALLS      AVE VOLUME [Bytes]
 MP_Group                5
 MP_Bcast              246                2220937.
 MP_Allreduce          609                 124499.
 MP_Sync                82
 MP_Alltoall           323                5894170.
 MP_ISendRecv         2028                  48122.
 MP_Wait              5868
 MP_comm_split          20
 MP_ISend             7994                 116721.
 MP_IRecv             6932                 263661.
 MP_Recv                 7                   2640.
 -------------------------------------------------------------------------------


 -------------------------------------------------------------------------------
 -                                                                             -
 -                           R E F E R E N C E S                               -
 -                                                                             -
 -------------------------------------------------------------------------------
 
 CP2K version 7.0 (Development Version), the CP2K developers group (2018).
 CP2K is freely available from https://www.cp2k.org/ .

 Schuett, Ole; Messmer, Peter; Hutter, Juerg; VandeVondele, Joost. 
 Electronic Structure Calculations on Graphics Processing Units, John Wiley & Sons, Ltd, 173-190 (2016). 
 GPU-Accelerated Sparse Matrix-Matrix Multiplication for Linear Scaling Density Functional Theory.
 https://dx.doi.org/10.1002/9781118670712.ch8


 Del Ben, M; Schuett, O; Wentz, T; Messmer, P; Hutter, J;
 VandeVondele, J. 
 COMPUTER PHYSICS COMMUNICATIONS, 187, 120-129 (2015). 
 Enabling simulation at the fifth rung of DFT: Large scale RPA
 calculations with excellent time to solution.
 https://dx.doi.org/10.1016/j.cpc.2014.10.021


 Borstnik, U; VandeVondele, J; Weber, V; Hutter, J. 
 PARALLEL COMPUTING, 40 (5-6), 47-58 (2014). 
 Sparse matrix multiplication: The distributed block-compressed sparse
 row library.
 https://dx.doi.org/10.1016/j.parco.2014.03.012


 Hutter, J; Iannuzzi, M; Schiffmann, F; VandeVondele, J. 
 WILEY INTERDISCIPLINARY REVIEWS-COMPUTATIONAL MOLECULAR SCIENCE, 4 (1), 15-25 (2014). 
 CP2K: atomistic simulations of condensed matter systems.
 https://dx.doi.org/10.1002/wcms.1159


 Del Ben, M; Hutter, J; VandeVondele, J. 
 JOURNAL OF CHEMICAL THEORY AND COMPUTATION, 9 (6), 2654-2671 (2013). 
 Electron Correlation in the Condensed Phase from a Resolution of
 Identity Approach Based on the Gaussian and Plane Waves Scheme.
 https://dx.doi.org/10.1021/ct4002202


 Del Ben, M; Hutter, J; VandeVondele, J. 
 JOURNAL OF CHEMICAL THEORY AND COMPUTATION, 8 (11), 4177-4188 (2012). 
 Second-Order Moller-Plesset Perturbation Theory in the Condensed Phase:
 An Efficient and Massively Parallel Gaussian and Plane Waves Approach.
 https://dx.doi.org/10.1021/ct300531w


 Guidon, M; Hutter, J; VandeVondele, J. 
 JOURNAL OF CHEMICAL THEORY AND COMPUTATION, 5 (11), 3010-3021 (2009). 
 Robust Periodic Hartree-Fock Exchange for Large-Scale Simulations Using
 Gaussian Basis Sets.
 https://dx.doi.org/10.1021/ct900494g


 Guidon, M; Schiffmann, F; Hutter, J; VandeVondele, J. 
 JOURNAL OF CHEMICAL PHYSICS, 128 (21), 214104 (2008). 
 Ab initio molecular dynamics using hybrid density functionals.
 https://dx.doi.org/10.1063/1.2931945


 Frigo, M; Johnson, SG. 
 PROCEEDINGS OF THE IEEE, 93 (2), 216-231 (2005). 
 The design and implementation of FFTW3.
 https://dx.doi.org/10.1109/JPROC.2004.840301


 Lippert, G; Hutter, J; Parrinello, M. 
 THEORETICAL CHEMISTRY ACCOUNTS, 103 (2), 124-140 (1999). 
 The Gaussian and augmented-plane-wave density functional method for ab
 initio molecular dynamics simulations.
 https://dx.doi.org/10.1007/s002140050523


 Krack, M; Parrinello, M. 
 PHYSICAL CHEMISTRY CHEMICAL PHYSICS, 2 (10), 2105-2112 (2000). 
 All-electron ab-initio molecular dynamics.
 https://dx.doi.org/10.1039/b001167n


 Martyna, GJ; Tuckerman, ME. 
 JOURNAL OF CHEMICAL PHYSICS, 110 (6), 2810-2821 (1999). 
 A reciprocal space based method for treating long range interactions in
 ab initio and force-field-based calculations in clusters.
 https://dx.doi.org/10.1063/1.477923


 Perdew, JP; Burke, K; Ernzerhof, M. 
 PHYSICAL REVIEW LETTERS, 77 (18), 3865-3868 (1996). 
 Generalized gradient approximation made simple.
 https://dx.doi.org/10.1103/PhysRevLett.77.3865


 -------------------------------------------------------------------------------
 -                                                                             -
 -                                T I M I N G                                  -
 -                                                                             -
 -------------------------------------------------------------------------------
 SUBROUTINE                       CALLS  ASD         SELF TIME        TOTAL TIME
                                MAXIMUM       AVERAGE  MAXIMUM  AVERAGE  MAXIMUM
 CP2K                                 1  1.0    0.372    0.392  212.134  212.134
 qs_energies                          1  2.0    0.000    0.003  208.081  208.089
 mp2_main                             1  3.0    0.001    0.014  145.531  145.545
 mp2_gpw_main                         1  4.0    0.001    0.002  108.337  108.344
 scf_env_do_scf                       1  3.0    0.000    0.001   60.596   60.596
 scf_env_do_scf_inner_loop           11  4.0    0.003    0.014   60.596   60.596
 mp2_ri_gpw_compute_in                1  5.0    0.000    0.009   45.603   55.290
 compute_3c_overlap_int               1  6.0   14.290   17.669   43.192   52.870
 rpa_ri_compute_en                    1  5.0    0.000    0.000   52.258   52.265
 rpa_num_int                          1  6.0    0.001    0.015   51.249   51.253
 mp_comm_split_direct                 8  6.6   11.078   43.334   11.078   43.334
 create_dbcsr_matrices_im_time        1  5.0    0.344    0.353   10.170   42.000
 compute_vec_Sigma_x_minus_vxc_       1  4.0    0.001    0.013   35.202   35.233
 compute_3c_overlap_int_put_dbc   44080  7.0   28.212   34.935   28.212   34.935
 qs_ks_build_kohn_sham_matrix        12  6.8    0.006    0.020   34.768   34.850
 integrate_four_center                1  5.0    0.005    0.016   33.705   33.710
 qs_ks_update_qs_env                 11  5.0    0.000    0.000   33.394   33.417
 rebuild_ks_matrix                   11  6.0    0.002    0.021   33.329   33.391
 dbcsr_multiply_generic             910  9.9    0.069    0.126   21.925   25.864
 multiply_cannon                    910 10.9    0.204    0.260   15.388   21.438
 qs_scf_new_mos                      11  5.0    0.001    0.013   20.043   20.049
 pw_transfer                        249  9.5    0.044    0.081   17.726   18.875
 fft_wrap_pw1pw2                    211 10.6    0.006    0.025   17.486   18.608
 GW_postprocessing                    1  7.0    0.000    0.007   18.433   18.441
 compute_self_energy_im_time_gw       1  8.0    0.003    0.005   18.427   18.427
 calc_screening_functions             1  6.0    8.518    9.859   16.041   17.718
 fft_wrap_pw1pw2_200                138 11.7    0.738    0.827   15.931   17.154
 mp_waitall_1                     65888 13.4    8.624   15.107    8.624   15.107
 fft3d_ps                           211 12.6    4.906    5.378   13.601   14.965
 multiply_cannon_multrec          17383 11.9    5.142   14.472    6.261   14.589
 powell_optimize                1653103  7.0   12.718   14.513   12.718   14.513
 eigensolver                         12  5.8    0.001    0.001   14.421   14.473
 cp_fm_syevd                         12  6.8    0.000    0.000   14.320   14.323
 compute_mat_P_omega                  1  7.0    0.001    0.002   13.604   13.607
 multiply_cannon_metrocomm3       17383 11.9    0.030    0.045    5.427   13.482
 mp_sum_d                          1165  6.7    8.230   12.765    8.230   12.765
 copy_dbcsr_to_fm                    39  6.9    0.001    0.001   12.155   12.411
 qs_vxc_create                       12  7.8    0.001    0.013   12.199   12.251
 xc_vxc_pw_create                    11  9.0    0.112    0.139   12.197   12.251
 dbcsr_complete_redistribute        123  9.4    0.012    0.085   12.080   12.170
 rs_pw_transfer                     122  9.4    0.005    0.029   11.178   11.826
 calc_pair_dist_radii                 1  6.0    4.190    4.998    9.385   11.297
 multiply_cannon_metrocomm1       17383 11.9    0.015    0.031    1.780   11.075
 mp_sum_l                          4512 10.9    6.533   10.998    6.533   10.998
 compute_self_energy_im_time_gw     280  9.0    0.001    0.002    7.657    9.816
 mp_sync                             82  8.7    5.749    9.617    5.749    9.617
 mp_alltoall_z22v                   211 14.6    7.357    8.582    7.357    8.582
 mp_cart_sub                         90  9.1    8.199    8.216    8.199    8.216
 cp_fm_redistribute_end              12  7.8    7.979    8.160    7.981    8.161
 compute_mat_P_omega_calc_P          14  8.0    0.001    0.008    7.518    8.068
 dbcsr_trace_a_b_d                  584  9.9    0.006    0.107    3.667    7.857
 compute_self_energy_im_time_gw     280  9.0    0.001    0.001    3.364    7.572
 prepare_gapw_den                    12  7.8    0.001    0.015    7.365    7.529
 qs_rho_update_rho                   12  5.0    0.002    0.019    7.328    7.409
 calculate_rho_elec                  12  6.0    0.148    1.301    7.199    7.272
 density_rs2pw                       12  7.0    0.001    0.001    6.406    6.742
 cp_fm_redistribute_start            12  7.8    4.920    5.294    6.243    6.742
 rpa_num_int_im_t_alloc_mat_gw        1  7.0    0.000    0.000    0.338    6.700
 allocate_matrices_gw_im_time         1  8.0    0.000    0.000    0.338    6.700
 get_mat_3c_overl_int_gw              1  9.0    0.002    0.002    0.337    6.699
 integrate_four_center_load           1  6.0    0.000    0.000    3.313    6.660
 hfx_load_balance                     1  7.0    0.000    0.013    3.313    6.660
 fill_mat_3c_overl_int_gw             1 10.0    0.000    0.000    0.284    6.638
 cp_fm_copy_general                   2  8.0    0.000    0.000    6.361    6.615
 rpa_num_int_im_t_alloc_mat_24        1  7.0    0.000    0.000    6.361    6.615
 cp_fm_start_copy_general             2  9.0    0.001    0.004    6.360    6.615
 mp_allgather_i                       4 10.0    6.358    6.612    6.358    6.612
 GW3c_fill_mat                        1 11.0    0.117    3.311    0.240    6.584
 xc_rho_set_and_dset_create          11 10.0    0.086    0.119    5.671    6.501
 mp_waitany                        3352 11.3    5.700    6.489    5.700    6.489
 hfx_load_balance_range               1  8.0    0.002    0.038    3.111    6.461
 sum_up_and_integrate                12  7.8    0.040    0.064    5.613    6.150
 integrate_v_rspace                  12  8.8    0.056    0.575    5.574    6.117
 yz_to_x                            106 13.2    0.700    0.854    4.964    6.093
 potential_pw2rs                     12  9.8    0.002    0.003    5.369    5.519
 mp_sum_dm                          114  7.6    3.747    5.346    3.747    5.346
 integrate_four_center_main           1  6.0    0.000    0.000    1.746    4.941
 integrate_four_center_bin          127  7.0    1.746    4.941    1.746    4.941
 rs_pw_transfer_RS2PW_200            25  9.8    1.563    1.762    4.195    4.587
 rs_pw_transfer_PW2RS_200            25 10.7    1.641    1.833    4.145    4.546
 rpa_num_int_RPA_matrix_operati      14  7.0    0.001    0.001    4.370    4.382
 compute_self_energy_im_time_gw     280  9.0    0.001    0.002    4.232    4.285
 -------------------------------------------------------------------------------

 The number of warnings for this run is : 3
 
 -------------------------------------------------------------------------------
  **** **** ******  **  PROGRAM ENDED AT                 2019-05-31 17:22:28.065
 ***** ** ***  *** **   PROGRAM RAN ON                                    tcopt4
 **    ****   ******    PROGRAM RAN BY                                   wilhelm
 ***** **    ** ** **   PROGRAM PROCESS ID                                 83634
  **** **  *******  **  PROGRAM STOPPED IN /data/wilhelm/2_job_test/11_GW100/3_c
                                           alcs/55_MgF2
