 DBCSR| CPU Multiplication driver                                           BLAS
 DBCSR| Multrec recursion limit                                              512
 DBCSR| Multiplication stack size                                           1000
 DBCSR| Maximum elements for images                                    UNLIMITED
 DBCSR| Multiplicative factor virtual images                                   1
 DBCSR| Use multiplication densification                                       T
 DBCSR| Multiplication size stacks                                             3
 DBCSR| Number of 3D layers                                               SINGLE
 DBCSR| Use MPI memory allocation                                              T
 DBCSR| Use RMA algorithm                                                      F
 DBCSR| Use Communication thread                                               T
 DBCSR| Communication thread load                                             87


  **** **** ******  **  PROGRAM STARTED AT               2019-05-31 10:42:08.590
 ***** ** ***  *** **   PROGRAM STARTED ON                                tcopt4
 **    ****   ******    PROGRAM STARTED BY                               wilhelm
 ***** **    ** ** **   PROGRAM PROCESS ID                                 43250
  **** **  *******  **  PROGRAM STARTED IN /data/wilhelm/2_job_test/11_GW100/3_c
                                           alcs/06_H2

 CP2K| version string:                    CP2K version 7.0 (Development Version)
 CP2K| source code revision number:                                  git:026fb12
 CP2K| cp2kflags: libint fftw3 libxc pexsi elpa=201705 parallel mpi3 scalapack q
 CP2K|            uip libderiv_max_am1=5 libint_max_am=6
 CP2K| is freely available from                            https://www.cp2k.org/
 CP2K| Program compiled at                         Sat May 11 13:15:02 CEST 2019
 CP2K| Program compiled on                                                tcopt4
 CP2K| Program compiled for                            local_valgrind_March_2019
 CP2K| Data directory path              /data/wilhelm/1_git_repository/cp2k/data
 CP2K| Input file name                                                    GW.inp

 GLOBAL| Force Environment number                                              1
 GLOBAL| Basis set file name                              BASIS_def2_QZVP_RI_ALL
 GLOBAL| Potential file name                                           POTENTIAL
 GLOBAL| MM Potential file name                                     MM_POTENTIAL
 GLOBAL| Coordinate file name                                          06_H2.xyz
 GLOBAL| Method name                                                        CP2K
 GLOBAL| Project name                                                   ALL_ELEC
 GLOBAL| Preferred FFT library                                             FFTW3
 GLOBAL| Preferred diagonalization lib.                                       SL
 GLOBAL| Run type                                                         ENERGY
 GLOBAL| All-to-all communication in single precision                          F
 GLOBAL| FFTs using library dependent lengths                                  F
 GLOBAL| Global print level                                               MEDIUM
 GLOBAL| MPI I/O enabled                                                       T
 GLOBAL| Total number of message passing processes                            24
 GLOBAL| Number of threads for this process                                    1
 GLOBAL| This output is from process                                           0
 GLOBAL| CPU model name :  Intel(R) Xeon(R) CPU E5-2697 v3 @ 2.60GHz

 MEMORY| system memory details [Kb]
 MEMORY|                        rank 0           min           max       average
 MEMORY| MemTotal            396954008     396954008     396954008     396954008
 MEMORY| MemFree             168675416     168675416     168675416     168675416
 MEMORY| Buffers                305860        305860        305860        305860
 MEMORY| Cached               14649268      14649268      14649268      14649268
 MEMORY| Slab                   568656        568656        568656        568656
 MEMORY| SReclaimable           427380        427380        427380        427380
 MEMORY| MemLikelyFree       184057924     184057924     184057924     184057924


 *** Fundamental physical constants (SI units) ***

 *** Literature: B. J. Mohr and B. N. Taylor,
 ***             CODATA recommended values of the fundamental physical
 ***             constants: 2006, Web Version 5.1
 ***             http://physics.nist.gov/constants

 Speed of light in vacuum [m/s]                             2.99792458000000E+08
 Magnetic constant or permeability of vacuum [N/A**2]       1.25663706143592E-06
 Electric constant or permittivity of vacuum [F/m]          8.85418781762039E-12
 Planck constant (h) [J*s]                                  6.62606896000000E-34
 Planck constant (h-bar) [J*s]                              1.05457162825177E-34
 Elementary charge [C]                                      1.60217648700000E-19
 Electron mass [kg]                                         9.10938215000000E-31
 Electron g factor [ ]                                     -2.00231930436220E+00
 Proton mass [kg]                                           1.67262163700000E-27
 Fine-structure constant                                    7.29735253760000E-03
 Rydberg constant [1/m]                                     1.09737315685270E+07
 Avogadro constant [1/mol]                                  6.02214179000000E+23
 Boltzmann constant [J/K]                                   1.38065040000000E-23
 Atomic mass unit [kg]                                      1.66053878200000E-27
 Bohr radius [m]                                            5.29177208590000E-11

 *** Conversion factors ***

 [u] -> [a.u.]                                              1.82288848426455E+03
 [Angstrom] -> [Bohr] = [a.u.]                              1.88972613288564E+00
 [a.u.] = [Bohr] -> [Angstrom]                              5.29177208590000E-01
 [a.u.] -> [s]                                              2.41888432650478E-17
 [a.u.] -> [fs]                                             2.41888432650478E-02
 [a.u.] -> [J]                                              4.35974393937059E-18
 [a.u.] -> [N]                                              8.23872205491840E-08
 [a.u.] -> [K]                                              3.15774647902944E+05
 [a.u.] -> [kJ/mol]                                         2.62549961709828E+03
 [a.u.] -> [kcal/mol]                                       6.27509468713739E+02
 [a.u.] -> [Pa]                                             2.94210107994716E+13
 [a.u.] -> [bar]                                            2.94210107994716E+08
 [a.u.] -> [atm]                                            2.90362800883016E+08
 [a.u.] -> [eV]                                             2.72113838565563E+01
 [a.u.] -> [Hz]                                             6.57968392072181E+15
 [a.u.] -> [1/cm] (wave numbers)                            2.19474631370540E+05
 [a.u./Bohr**2] -> [1/cm]                                   5.14048714338585E+03
 

 CELL_TOP| Volume [angstrom^3]:                                         4096.000
 CELL_TOP| Vector a [angstrom    16.000     0.000     0.000    |a| =      16.000
 CELL_TOP| Vector b [angstrom     0.000    16.000     0.000    |b| =      16.000
 CELL_TOP| Vector c [angstrom     0.000     0.000    16.000    |c| =      16.000
 CELL_TOP| Angle (b,c), alpha [degree]:                                   90.000
 CELL_TOP| Angle (a,c), beta  [degree]:                                   90.000
 CELL_TOP| Angle (a,b), gamma [degree]:                                   90.000
 CELL_TOP| Numerically orthorhombic:                                         YES

 GENERATE|  Preliminary Number of Bonds generated:                             0
 GENERATE|  Achieved consistency in connectivity generation.

 CELL| Volume [angstrom^3]:                                             4096.000
 CELL| Vector a [angstrom]:      16.000     0.000     0.000    |a| =      16.000
 CELL| Vector b [angstrom]:       0.000    16.000     0.000    |b| =      16.000
 CELL| Vector c [angstrom]:       0.000     0.000    16.000    |c| =      16.000
 CELL| Angle (b,c), alpha [degree]:                                       90.000
 CELL| Angle (a,c), beta  [degree]:                                       90.000
 CELL| Angle (a,b), gamma [degree]:                                       90.000
 CELL| Numerically orthorhombic:                                             YES

 CELL_REF| Volume [angstrom^3]:                                         4096.000
 CELL_REF| Vector a [angstrom    16.000     0.000     0.000    |a| =      16.000
 CELL_REF| Vector b [angstrom     0.000    16.000     0.000    |b| =      16.000
 CELL_REF| Vector c [angstrom     0.000     0.000    16.000    |c| =      16.000
 CELL_REF| Angle (b,c), alpha [degree]:                                   90.000
 CELL_REF| Angle (a,c), beta  [degree]:                                   90.000
 CELL_REF| Angle (a,b), gamma [degree]:                                   90.000
 CELL_REF| Numerically orthorhombic:                                         YES

 *******************************************************************************
 *******************************************************************************
 **                                                                           **
 **     #####                         ##              ##                      **
 **    ##   ##            ##          ##              ##                      **
 **   ##     ##                       ##            ######                    **
 **   ##     ##  ##   ##  ##   #####  ##  ##   ####   ##    #####    #####    **
 **   ##     ##  ##   ##  ##  ##      ## ##   ##      ##   ##   ##  ##   ##   **
 **   ##  ## ##  ##   ##  ##  ##      ####     ###    ##   ######   ######    **
 **    ##  ###   ##   ##  ##  ##      ## ##      ##   ##   ##       ##        **
 **     #######   #####   ##   #####  ##  ##  ####    ##    #####   ##        **
 **           ##                                                    ##        **
 **                                                                           **
 **                                                ... make the atoms dance   **
 **                                                                           **
 **            Copyright (C) by CP2K developers group (2000 - 2019)           **
 **                                                                           **
 *******************************************************************************

 DFT| Spin restricted Kohn-Sham (RKS) calculation                            RKS
 DFT| Multiplicity                                                             1
 DFT| Number of spin states                                                    1
 DFT| Charge                                                                   0
 DFT| Self-interaction correction (SIC)                                       NO
 DFT| Cutoffs: density                                              1.000000E-10
 DFT|          gradient                                             1.000000E-10
 DFT|          tau                                                  1.000000E-10
 DFT|          cutoff_smoothing_range                               0.000000E+00
 DFT| XC density smoothing                                                  NONE
 DFT| XC derivatives                                                          PW
 FUNCTIONAL| ROUTINE=NEW
 FUNCTIONAL| PBE:
 FUNCTIONAL| J.P.Perdew, K.Burke, M.Ernzerhof, Phys. Rev. Letter, vol. 77, n 18,
 FUNCTIONAL|  pp. 3865-3868, (1996){spin unpolarized}                           

 QS| Method:                                                                GAPW
 QS| Density plane wave grid type                        NON-SPHERICAL FULLSPACE
 QS| Number of grid levels:                                                    4
 QS| Density cutoff [a.u.]:                                                200.0
 QS| Multi grid cutoff [a.u.]: 1) grid level                               200.0
 QS|                           2) grid level                                66.7
 QS|                           3) grid level                                22.2
 QS|                           4) grid level                                 7.4
 QS| Grid level progression factor:                                          3.0
 QS| Relative density cutoff [a.u.]:                                        25.0
 QS| Consistent realspace mapping and integration 
 QS| Interaction thresholds: eps_pgf_orb:                                1.0E-05
 QS|                         eps_filter_matrix:                          0.0E+00
 QS|                         eps_core_charge:                            1.0E-12
 QS|                         eps_rho_gspace:                             1.0E-10
 QS|                         eps_rho_rspace:                             1.0E-10
 QS|                         eps_gvg_rspace:                             1.0E-05
 QS|                         eps_ppl:                                    1.0E-02
 QS|                         eps_ppnl:                                   1.0E-07
 QS| GAPW|                   eps_fit:                                    1.0E-04
 QS| GAPW|                   eps_iso:                                    1.0E-12
 QS| GAPW|                   eps_svd:                                    1.0E-08
 QS| GAPW|                   eps_cpc:                                    1.0E-10
 QS| GAPW|   atom-r-grid: quadrature:                 GC_LOG                        
 QS| GAPW|      atom-s-grid:  max l :                                          6
 QS| GAPW|      max_l_rho0 :                                                   2


 ATOMIC KIND INFORMATION

  1. Atomic kind: H                                     Number of atoms:       2

     Orbital Basis Set                                                 def2-QZVP

       Number of orbital shell sets:                                          10
       Number of orbital shells:                                              10
       Number of primitive Cartesian functions:                               13
       Number of Cartesian basis functions:                                   35
       Number of spherical basis functions:                                   30
       Norm type:                                                              2

       Normalised Cartesian orbitals:

                        Set   Shell   Orbital            Exponent    Coefficient

                          1       1    1s              190.691690       0.195396
                                                        28.605532       0.363661
                                                         6.509594       0.612837
                                                         1.841246       0.914889

                          2       1    1s                0.598537       0.484985

                          3       1    1s                0.213976       0.224225

                          4       1    1s                0.080316       0.107526

                          5       1    1px               2.292000       4.019836
                          5       1    1py               2.292000       4.019836
                          5       1    1pz               2.292000       4.019836

                          6       1    1px               0.838000       1.142865
                          6       1    1py               0.838000       1.142865
                          6       1    1pz               0.838000       1.142865

                          7       1    1px               0.292000       0.305963
                          7       1    1py               0.292000       0.305963
                          7       1    1pz               0.292000       0.305963

                          8       1    1dx2              2.062000       5.840024
                          8       1    1dxy              2.062000      10.115218
                          8       1    1dxz              2.062000      10.115218
                          8       1    1dy2              2.062000       5.840024
                          8       1    1dyz              2.062000      10.115218
                          8       1    1dz2              2.062000       5.840024

                          9       1    1dx2              0.662000       0.799670
                          9       1    1dxy              0.662000       1.385069
                          9       1    1dxz              0.662000       1.385069
                          9       1    1dy2              0.662000       0.799670
                          9       1    1dyz              0.662000       1.385069
                          9       1    1dz2              0.662000       0.799670

                         10       1    1fx3              1.397000       3.123535
                         10       1    1fx2y             1.397000       6.984436
                         10       1    1fx2z             1.397000       6.984436
                         10       1    1fxy2             1.397000       6.984436
                         10       1    1fxyz             1.397000      12.097399
                         10       1    1fxz2             1.397000       6.984436
                         10       1    1fy3              1.397000       3.123535
                         10       1    1fy2z             1.397000       6.984436
                         10       1    1fyz2             1.397000       6.984436
                         10       1    1fz3              1.397000       3.123535

     RI Auxiliary Basis Set                                                RI-5Z

       Number of orbital shell sets:                                          21
       Number of orbital shells:                                              21
       Number of primitive Cartesian functions:                               21
       Number of Cartesian basis functions:                                  126
       Number of spherical basis functions:                                   91
       Norm type:                                                              2

       Normalised Cartesian orbitals:

                        Set   Shell   Orbital            Exponent    Coefficient

                          1       1    1s               23.321500       7.563581

                          2       1    1s                4.922970       2.355486

                          3       1    1s                1.775100       1.096042

                          4       1    1s                0.994218       0.709613

                          5       1    1s                0.506054       0.427620

                          6       1    1s                0.236911       0.242019

                          7       1    1px               5.974580      13.314483
                          7       1    1py               5.974580      13.314483
                          7       1    1pz               5.974580      13.314483

                          8       1    1px               2.052170       3.501118
                          8       1    1py               2.052170       3.501118
                          8       1    1pz               2.052170       3.501118

                          9       1    1px               1.248660       1.881462
                          9       1    1py               1.248660       1.881462
                          9       1    1pz               1.248660       1.881462

                         10       1    1px               0.805545       1.087808
                         10       1    1py               0.805545       1.087808
                         10       1    1pz               0.805545       1.087808

                         11       1    1px               0.347892       0.380843
                         11       1    1py               0.347892       0.380843
                         11       1    1pz               0.347892       0.380843

                         12       1    1dx2              3.858160      17.481346
                         12       1    1dxy              3.858160      30.278579
                         12       1    1dxz              3.858160      30.278579
                         12       1    1dy2              3.858160      17.481346
                         12       1    1dyz              3.858160      30.278579
                         12       1    1dz2              3.858160      17.481346

                         13       1    1dx2              1.710630       4.211459
                         13       1    1dxy              1.710630       7.294461
                         13       1    1dxz              1.710630       7.294461
                         13       1    1dy2              1.710630       4.211459
                         13       1    1dyz              1.710630       7.294461
                         13       1    1dz2              1.710630       4.211459

                         14       1    1dx2              0.979237       1.586584
                         14       1    1dxy              0.979237       2.748044
                         14       1    1dxz              0.979237       2.748044
                         14       1    1dy2              0.979237       1.586584
                         14       1    1dyz              0.979237       2.748044
                         14       1    1dz2              0.979237       1.586584

                         15       1    1dx2              0.625366       0.723843
                         15       1    1dxy              0.625366       1.253733
                         15       1    1dxz              0.625366       1.253733
                         15       1    1dy2              0.625366       0.723843
                         15       1    1dyz              0.625366       1.253733
                         15       1    1dz2              0.625366       0.723843

                         16       1    1fx3              3.101510      18.792914
                         16       1    1fx2y             3.101510      42.022232
                         16       1    1fx2z             3.101510      42.022232
                         16       1    1fxy2             3.101510      42.022232
                         16       1    1fxyz             3.101510      72.784641
                         16       1    1fxz2             3.101510      42.022232
                         16       1    1fy3              3.101510      18.792914
                         16       1    1fy2z             3.101510      42.022232
                         16       1    1fyz2             3.101510      42.022232
                         16       1    1fz3              3.101510      18.792914

                         17       1    1fx3              1.198110       2.210915
                         17       1    1fx2y             1.198110       4.943756
                         17       1    1fx2z             1.198110       4.943756
                         17       1    1fxy2             1.198110       4.943756
                         17       1    1fxyz             1.198110       8.562836
                         17       1    1fxz2             1.198110       4.943756
                         17       1    1fy3              1.198110       2.210915
                         17       1    1fy2z             1.198110       4.943756
                         17       1    1fyz2             1.198110       4.943756
                         17       1    1fz3              1.198110       2.210915

                         18       1    1fx3              0.572873       0.420326
                         18       1    1fx2y             0.572873       0.939876
                         18       1    1fx2z             0.572873       0.939876
                         18       1    1fxy2             0.572873       0.939876
                         18       1    1fxyz             0.572873       1.627914
                         18       1    1fxz2             0.572873       0.939876
                         18       1    1fy3              0.572873       0.420326
                         18       1    1fy2z             0.572873       0.939876
                         18       1    1fyz2             0.572873       0.939876
                         18       1    1fz3              0.572873       0.420326

                         19       1    1gx4              2.987800      22.576266
                         19       1    1gx3y             2.987800      59.731185
                         19       1    1gx3z             2.987800      59.731185
                         19       1    1gx2y2            2.987800      77.112629
                         19       1    1gx2yz            2.987800     133.562991
                         19       1    1gx2z2            2.987800      77.112629
                         19       1    1gxy3             2.987800      59.731185
                         19       1    1gxy2z            2.987800     133.562991
                         19       1    1gxyz2            2.987800     133.562991
                         19       1    1gxz3             2.987800      59.731185
                         19       1    1gy4              2.987800      22.576266
                         19       1    1gy3z             2.987800      59.731185
                         19       1    1gy2z2            2.987800      77.112629
                         19       1    1gyz3             2.987800      59.731185
                         19       1    1gz4              2.987800      22.576266

                         20       1    1gx4              1.231920       1.974865
                         20       1    1gx3y             1.231920       5.225001
                         20       1    1gx3z             1.231920       5.225001
                         20       1    1gx2y2            1.231920       6.745447
                         20       1    1gx2yz            1.231920      11.683456
                         20       1    1gx2z2            1.231920       6.745447
                         20       1    1gxy3             1.231920       5.225001
                         20       1    1gxy2z            1.231920      11.683456
                         20       1    1gxyz2            1.231920      11.683456
                         20       1    1gxz3             1.231920       5.225001
                         20       1    1gy4              1.231920       1.974865
                         20       1    1gy3z             1.231920       5.225001
                         20       1    1gy2z2            1.231920       6.745447
                         20       1    1gyz3             1.231920       5.225001
                         20       1    1gz4              1.231920       1.974865

                         21       1    1hx5              3.247390      34.106027
                         21       1    1hx4y             3.247390     102.318080
                         21       1    1hx4z             3.247390     102.318080
                         21       1    1hx3y2            3.247390     156.293448
                         21       1    1hx3yz            3.247390     270.708193
                         21       1    1hx3z2            3.247390     156.293448
                         21       1    1hx2y3            3.247390     156.293448
                         21       1    1hx2y2z           3.247390     349.482775
                         21       1    1hx2yz2           3.247390     349.482775
                         21       1    1hx2z3            3.247390     156.293448
                         21       1    1hxy4             3.247390     102.318080
                         21       1    1hxy3z            3.247390     270.708193
                         21       1    1hxy2z2           3.247390     349.482775
                         21       1    1hxyz3            3.247390     270.708193
                         21       1    1hxz4             3.247390     102.318080
                         21       1    1hy5              3.247390      34.106027
                         21       1    1hy4z             3.247390     102.318080
                         21       1    1hy3z2            3.247390     156.293448
                         21       1    1hy2z3            3.247390     156.293448
                         21       1    1hyz4             3.247390     102.318080
                         21       1    1hz5              3.247390      34.106027

     The atoms of this atomic kind are PAW atoms (GAPW):
       Hard Gaussian function radius:                                      1.200
       Rho0 radius:                                                        1.200
       Maximum GTO radius used for PAW projector construction:            24.566

     GAPW Soft Basis Set                                          def2-QZVP_soft

       Number of orbital shell sets:                                          10
       Number of orbital shells:                                              10
       Number of primitive Cartesian functions:                               10
       Number of Cartesian basis functions:                                   35
       Number of spherical basis functions:                                   30
       Norm type:                                                              2

       Normalised Cartesian orbitals:

                        Set   Shell   Orbital            Exponent    Coefficient

                          1       1    1s                1.841246       0.914889

                          2       1    1s                0.598537       0.484985

                          3       1    1s                0.213976       0.224225

                          4       1    1s                0.080316       0.107526

                          5       1    1px               2.292000       4.019836
                          5       1    1py               2.292000       4.019836
                          5       1    1pz               2.292000       4.019836

                          6       1    1px               0.838000       1.142865
                          6       1    1py               0.838000       1.142865
                          6       1    1pz               0.838000       1.142865

                          7       1    1px               0.292000       0.305963
                          7       1    1py               0.292000       0.305963
                          7       1    1pz               0.292000       0.305963

                          8       1    1dx2              2.062000       5.840024
                          8       1    1dxy              2.062000      10.115218
                          8       1    1dxz              2.062000      10.115218
                          8       1    1dy2              2.062000       5.840024
                          8       1    1dyz              2.062000      10.115218
                          8       1    1dz2              2.062000       5.840024

                          9       1    1dx2              0.662000       0.799670
                          9       1    1dxy              0.662000       1.385069
                          9       1    1dxz              0.662000       1.385069
                          9       1    1dy2              0.662000       0.799670
                          9       1    1dyz              0.662000       1.385069
                          9       1    1dz2              0.662000       0.799670

                         10       1    1fx3              1.397000       3.123535
                         10       1    1fx2y             1.397000       6.984436
                         10       1    1fx2z             1.397000       6.984436
                         10       1    1fxy2             1.397000       6.984436
                         10       1    1fxyz             1.397000      12.097399
                         10       1    1fxz2             1.397000       6.984436
                         10       1    1fy3              1.397000       3.123535
                         10       1    1fy2z             1.397000       6.984436
                         10       1    1fyz2             1.397000       6.984436
                         10       1    1fz3              1.397000       3.123535

     AE Potential information for                                            ALL

       Description:                                       All-electron potential
                                          Krack, Parrinello, PCCP 2, 2105 (2000)

       Gaussian exponent of the core charge distribution:              12.500000
       Electronic configuration (s p d ...):                           1   0   0


 MOLECULE KIND INFORMATION


 All atoms are their own molecule, skipping detailed information


 TOTAL NUMBERS AND MAXIMUM NUMBERS

  Total number of            - Atomic kinds:                                   1
                             - Atoms:                                          2
                             - Shell sets:                                    20
                             - Shells:                                        20
                             - Primitive Cartesian functions:                 26
                             - Cartesian basis functions:                     70
                             - Spherical basis functions:                     60

  Maximum angular momentum of the orbital basis functions:                     3


 MODULE QUICKSTEP:  ATOMIC COORDINATES IN angstrom

  Atom  Kind  Element       X           Y           Z          Z(eff)       Mass

       1     1 H    1    8.000000    8.000000    7.629280      1.00       1.0079
       2     1 H    1    8.000000    8.000000    8.370720      1.00       1.0079




 SCF PARAMETERS         Density guess:                                   RESTART
                        --------------------------------------------------------
                        max_scf:                                             200
                        max_scf_history:                                       0
                        max_diis:                                              4
                        --------------------------------------------------------
                        eps_scf:                                        1.00E-06
                        eps_scf_history:                                0.00E+00
                        eps_diis:                                       1.00E-01
                        eps_eigval:                                     1.00E-05
                        --------------------------------------------------------
                        level_shift [a.u.]:                                 0.00
                        --------------------------------------------------------
                        Mixing method:                           DIRECT_P_MIXING
                        --------------------------------------------------------
                        No outer SCF

 PW_GRID| Information for grid number                                          1
 PW_GRID| Grid distributed over                                    24 processors
 PW_GRID| Real space group dimensions                                    24    1
 PW_GRID| the grid is blocked:                                                NO
 PW_GRID| Cutoff [a.u.]                                                    400.0
 PW_GRID| spherical cutoff:                                                   NO
 PW_GRID|   Bounds   1           -144     143                Points:         288
 PW_GRID|   Bounds   2           -144     143                Points:         288
 PW_GRID|   Bounds   3           -144     143                Points:         288
 PW_GRID| Volume element (a.u.^3)  0.1157E-02     Volume (a.u.^3)     27641.1785
 PW_GRID| Grid span                                                    FULLSPACE
 PW_GRID|   Distribution                         Average         Max         Min
 PW_GRID|   G-Vectors                           995328.0      995328      995328
 PW_GRID|   G-Rays                                3456.0        3456        3456
 PW_GRID|   Real Space Points                   995328.0      995328      995328

 PW_GRID| Information for grid number                                          2
 PW_GRID| Grid distributed over                                    24 processors
 PW_GRID| Real space group dimensions                                    24    1
 PW_GRID| the grid is blocked:                                                NO
 PW_GRID| Cutoff [a.u.]                                                    200.0
 PW_GRID| spherical cutoff:                                                   NO
 PW_GRID|   Bounds   1           -100      99                Points:         200
 PW_GRID|   Bounds   2           -100      99                Points:         200
 PW_GRID|   Bounds   3           -100      99                Points:         200
 PW_GRID| Volume element (a.u.^3)  0.3455E-02     Volume (a.u.^3)     27641.1785
 PW_GRID| Grid span                                                    FULLSPACE
 PW_GRID|   Distribution                         Average         Max         Min
 PW_GRID|   G-Vectors                           333333.3      333600      333200
 PW_GRID|   G-Rays                                1666.7        1668        1666
 PW_GRID|   Real Space Points                   333333.3      360000      320000

 PW_GRID| Information for grid number                                          3
 PW_GRID| Grid distributed over                                    24 processors
 PW_GRID| Real space group dimensions                                    24    1
 PW_GRID| the grid is blocked:                                                NO
 PW_GRID| Cutoff [a.u.]                                                     66.7
 PW_GRID| spherical cutoff:                                                   NO
 PW_GRID|   Bounds   1            -60      59                Points:         120
 PW_GRID|   Bounds   2            -60      59                Points:         120
 PW_GRID|   Bounds   3            -60      59                Points:         120
 PW_GRID| Volume element (a.u.^3)  0.1600E-01     Volume (a.u.^3)     27641.1785
 PW_GRID| Grid span                                                    FULLSPACE
 PW_GRID|   Distribution                         Average         Max         Min
 PW_GRID|   G-Vectors                            72000.0       72360       71760
 PW_GRID|   G-Rays                                 600.0         603         598
 PW_GRID|   Real Space Points                    72000.0       72000       72000

 PW_GRID| Information for grid number                                          4
 PW_GRID| Grid distributed over                                    24 processors
 PW_GRID| Real space group dimensions                                    24    1
 PW_GRID| the grid is blocked:                                                NO
 PW_GRID| Cutoff [a.u.]                                                     22.2
 PW_GRID| spherical cutoff:                                                   NO
 PW_GRID|   Bounds   1            -36      35                Points:          72
 PW_GRID|   Bounds   2            -36      35                Points:          72
 PW_GRID|   Bounds   3            -36      35                Points:          72
 PW_GRID| Volume element (a.u.^3)  0.7406E-01     Volume (a.u.^3)     27641.1785
 PW_GRID| Grid span                                                    FULLSPACE
 PW_GRID|   Distribution                         Average         Max         Min
 PW_GRID|   G-Vectors                            15552.0       15768       15408
 PW_GRID|   G-Rays                                 216.0         219         214
 PW_GRID|   Real Space Points                    15552.0       15552       15552

 PW_GRID| Information for grid number                                          5
 PW_GRID| Grid distributed over                                    24 processors
 PW_GRID| Real space group dimensions                                    24    1
 PW_GRID| the grid is blocked:                                                NO
 PW_GRID| Cutoff [a.u.]                                                      7.4
 PW_GRID| spherical cutoff:                                                   NO
 PW_GRID|   Bounds   1            -20      19                Points:          40
 PW_GRID|   Bounds   2            -20      19                Points:          40
 PW_GRID|   Bounds   3            -20      19                Points:          40
 PW_GRID| Volume element (a.u.^3)  0.4319         Volume (a.u.^3)     27641.1785
 PW_GRID| Grid span                                                    FULLSPACE
 PW_GRID|   Distribution                         Average         Max         Min
 PW_GRID|   G-Vectors                             2666.7        2720        2640
 PW_GRID|   G-Rays                                  66.7          68          66
 PW_GRID|   Real Space Points                     2666.7        3200        1600

 POISSON| Solver                                          Martyna-Tuckerman (MT)
 POISSON| MT| Alpha                                                        7.000
 POISSON| MT| Relative cutoff                                                2.0
 POISSON| Periodicity                                                       NONE

 RS_GRID| Information for grid number                                          2
 RS_GRID|   Bounds   1           -100      99                Points:         200
 RS_GRID|   Bounds   2           -100      99                Points:         200
 RS_GRID|   Bounds   3           -100      99                Points:         200
 RS_GRID| Real space distribution over                                  4 groups
 RS_GRID| Real space distribution along direction                              2
 RS_GRID| Border size                                                         24
 RS_GRID| Real space distribution over                                  6 groups
 RS_GRID| Real space distribution along direction                              3
 RS_GRID| Border size                                                         24
 RS_GRID|   Distribution                         Average         Max         Min
 RS_GRID|   Planes                                  98.0          98          98
 RS_GRID|   Distribution                         Average         Max         Min
 RS_GRID|   Planes                                  81.3          82          81

 RS_GRID| Information for grid number                                          3
 RS_GRID|   Bounds   1            -60      59                Points:         120
 RS_GRID|   Bounds   2            -60      59                Points:         120
 RS_GRID|   Bounds   3            -60      59                Points:         120
 RS_GRID| Real space distribution over                                  4 groups
 RS_GRID| Real space distribution along direction                              2
 RS_GRID| Border size                                                         24
 RS_GRID| Real space distribution over                                  6 groups
 RS_GRID| Real space distribution along direction                              3
 RS_GRID| Border size                                                         24
 RS_GRID|   Distribution                         Average         Max         Min
 RS_GRID|   Planes                                  78.0          78          78
 RS_GRID|   Distribution                         Average         Max         Min
 RS_GRID|   Planes                                  68.0          68          68

 RS_GRID| Information for grid number                                          4
 RS_GRID|   Bounds   1            -36      35                Points:          72
 RS_GRID|   Bounds   2            -36      35                Points:          72
 RS_GRID|   Bounds   3            -36      35                Points:          72
 RS_GRID| Real space fully replicated
 RS_GRID| Group size                                                           1

 RS_GRID| Information for grid number                                          5
 RS_GRID|   Bounds   1            -20      19                Points:          40
 RS_GRID|   Bounds   2            -20      19                Points:          40
 RS_GRID|   Bounds   3            -20      19                Points:          40
 RS_GRID| Real space fully replicated
 RS_GRID| Group size                                                           1
 
 RI-RPA| using GPW style
 

  HFX_INFO| Replica ID:                                                        1
  HFX_INFO| EPS_SCHWARZ:                                                 2.0E-17
  HFX_INFO| EPS_SCHWARZ_FORCES                                           1.0E-06
  HFX_INFO| EPS_STORAGE_SCALING:                                         1.0E+00
  HFX_INFO| NBINS:                                                            64
  HFX_INFO| BLOCK_SIZE:                                                        1
  HFX_INFO| FRACTION:                                               1.0000000000
  HFX_INFO| Interaction Potential:                                       COULOMB
  HFX_INFO| Number of periodic shells considered:                           NONE
  HFX_INFO| Number of periodic cells considered:                            NONE


 Number of electrons:                                                          2
 Number of occupied orbitals:                                                  1
 Number of molecular orbitals:                                                 1

 Number of orbital functions:                                                 60
 Number of independent orbital functions:                                     60

 Extrapolation method: initial_guess

 *** WARNING in qs_initial_guess.F:267 :: User requested to restart the   ***
 *** wavefunction from the file named: ALL_ELEC-RESTART.wfn. This file    ***
 *** does not exist. Please check the existence of the file or change     ***
 *** properly the value of the keyword WFN_RESTART_FILE_NAME. Calculation ***
 *** continues using ATOMIC GUESS.                                        ***


 Atomic guess: The first density matrix is obtained in terms of atomic orbitals
               and electronic configurations assigned to each atomic kind

 Guess for atomic kind: H

 Electronic structure
    Total number of core electrons                                          0.00
    Total number of valence electrons                                       1.00
    Total number of electrons                                               1.00
    Multiplicity                                                   not specified
    S      1.00


 *******************************************************************************
                  Iteration          Convergence                     Energy [au]
 *******************************************************************************
                          1        0.760354E-02                  -0.445327665654
                          2        0.114575E-02                  -0.445419349379
                          3        0.106073E-03                  -0.445421833009
                          4        0.362246E-06                  -0.445421852875

 Energy components [Hartree]           Total Energy ::           -0.445421852875
                                        Band Energy ::           -0.232522434546
                                     Kinetic Energy ::            0.425808986370
                                   Potential Energy ::           -0.871230839245
                                      Virial (-V/T) ::            2.046060245633
                                        Core Energy ::           -0.496086848305
                                          XC Energy ::           -0.232842933138
                                     Coulomb Energy ::            0.283507928568

 Orbital energies  State     L     Occupation   Energy[a.u.]          Energy[eV]

                       1     0          1.000      -0.232522           -6.327257


 Total Electron Density at R=0:                                         0.261242
 Re-scaling the density matrix to get the right number of electrons
                  # Electrons              Trace(P)               Scaling factor
                            2                 2.000                        1.000


 SCF WAVEFUNCTION OPTIMIZATION

  Step     Update method      Time    Convergence         Total energy    Change
  ------------------------------------------------------------------------------
     1 P_Mix/Diag. 0.40E+00    2.0     0.12830595        -0.9626925330 -9.63E-01
     2 P_Mix/Diag. 0.40E+00    1.9     0.07351327        -1.0504183393 -8.77E-02
     3 DIIS/Diag.  0.34E-01    2.0     0.03614432        -1.0983792963 -4.80E-02
     4 DIIS/Diag.  0.24E-01    2.1     0.00580277        -1.1664528749 -6.81E-02
     5 DIIS/Diag.  0.33E-01    2.2     0.01494485        -1.1662906999  1.62E-04
     6 P_Mix/Diag. 0.40E+00    2.2     0.01511054        -1.1634149669  2.88E-03
     7 DIIS/Diag.  0.14E-01    2.4     0.00513247        -1.1649212287 -1.51E-03
     8 DIIS/Diag.  0.29E-03    2.5     0.00008394        -1.1666391610 -1.72E-03
     9 DIIS/Diag.  0.45E-03    2.5     0.00012852        -1.1666391220  3.91E-08
    10 DIIS/Diag.  0.71E-03    2.5     0.00008728        -1.1666390299  9.21E-08
    11 DIIS/Diag.  0.80E-04    2.5     0.00000886        -1.1666391847 -1.55E-07
    12 DIIS/Diag.  0.21E-08    2.5     4.6524E-10        -1.1666391867 -2.00E-09

  *** SCF run converged in    12 steps ***


  Electronic density on regular grids:         -1.9382199902        0.0617800098
  Core density on regular grids:                2.0000000000       -0.0000000000
  Hard and soft densities (Lebedev):           -5.3235708327       -5.2617869732
  Total Rho_soft + Rho1_hard - Rho1_soft       -2.0000038497
  Total charge density (r-space):              -0.0000038497
  Total Rho_soft + Rho0_soft (g-space):        -0.0000038561

  Overlap energy of the core charge distribution:               0.00000051968942
  Self energy of the core charge distribution:                 -2.82094791773878
  Core Hamiltonian energy:                                      0.98137646288708
  Hartree energy:                                               1.07918617225470
  Exchange-correlation energy:                                 -0.64822397047178

  GAPW| Exc from hard and soft atomic rho1:                    -0.04241293862738
  GAPW| local Eh = 1 center integrals:                          0.28438248534973

  Total energy:                                                -1.16663918665702

 !-----------------------------------------------------------------------------!
                     Mulliken Population Analysis

 #  Atom  Element  Kind  Atomic population                           Net charge
       1     H        1          1.000000                             -0.000000
       2     H        1          1.000000                              0.000000
 # Total charge                              2.000000                 -0.000000

 !-----------------------------------------------------------------------------!

 !-----------------------------------------------------------------------------!
                           Hirshfeld Charges

  #Atom  Element  Kind  Ref Charge     Population                    Net charge
      1       H      1       1.000          0.905                         0.095
      2       H      1       1.000          0.905                         0.095

  Total Charge                                                            0.191
 !-----------------------------------------------------------------------------!


 RI-RPA section
 --------------

  Used number of processes per group:                                          1
  Maximum allowed memory usage per MPI processes:                     200.00 MiB

  HFX_MEM_INFO| Est. max. program size before HFX [MiB]:                     389
  HFX_MEM_INFO| Number of cart. primitive ERI's calculated:             12493488
  HFX_MEM_INFO| Number of sph. ERI's calculated:                         4860000
  HFX_MEM_INFO| Number of sph. ERI's stored in-core:                     4860000
  HFX_MEM_INFO| Number of sph. ERI's stored on disk:                           0
  HFX_MEM_INFO| Number of sph. ERI's calculated on the fly:                    0
  HFX_MEM_INFO| Total memory consumption ERI's RAM [MiB]:                     30
  HFX_MEM_INFO| Whereof max-vals [MiB]:                                        1
  HFX_MEM_INFO| Total compression factor ERI's RAM:                         1.26
  HFX_MEM_INFO| Total memory consumption ERI's disk [MiB]:                     0
  HFX_MEM_INFO| Total compression factor ERI's disk:                        0.00
  HFX_MEM_INFO| Size of density/Fock matrix [MiB]:                             0
  HFX_MEM_INFO| Size of buffers [MiB]:                                         0
  HFX_MEM_INFO| Est. max. program size after HFX  [MiB]:                     390

  GPW_INFO| Density cutoff [a.u.]:                                         150.0
  GPW_INFO| Relative density cutoff [a.u.]:                                 25.0
  RI_INFO| Cholesky decomposition group size:                                 24
  RI_INFO| Number of groups for auxiliary basis functions                     24
  RI_INFO| Occupied  basis set size:                                           1
  RI_INFO| Virtual   basis set size:                                          59
  RI_INFO| Auxiliary basis set size:                                         182
  RI_INFO| Total memory for (ia|K) integrals:                           0.08 MiB
  RI_INFO| Group size for frequency integration:                              24
  INTEG_INFO| MINIMAX quadrature
  INTEG_INFO| Number of integration points:                                   12
  INTEG_INFO| Number of integration points per RPA group:                     12
  MATRIX_INFO| Number row processes:                                           4
  MATRIX_INFO| Number column processes:                                        6
  MATRIX_INFO| Row block size:                                                 7
  MATRIX_INFO| Column block size:                                             15
 Emin =  0.41115363477730160      Emax =   12.753528637652055      Range =   31.018888218171565     
  INTEG_INFO| Range for the minimax approximation:                       31.0189
  INTEG_INFO| Minimax parameters:                    Weights           Abscissas
                                                1.4545780561        0.1797557727
                                                1.6595735400        0.5645148233
                                                2.1067455314        1.0296062040
                                                2.8768435837        1.6446360592
                                                4.1110043963        2.5064447434
                                                6.0463646487        3.7581234230
                                                9.0921131013        5.6212566685
                                               14.0166583825        8.4585429416
                                               22.5136140411       12.9204625487
                                               39.3765639220       20.3843682763
                                               84.1919336645       34.7592643743
                                              317.8887961898       75.3517169725
  INTEG_INFO| Range for the minimax approximation:                       31.0189
  INTEG_INFO| Gap:                                                        0.4112
  INTEG_INFO| Minimax parameters of the time grid:   Weights           Abscissas
                                                0.0153452696        0.0059542914
                                                0.0370577009        0.0319525294
                                                0.0623810010        0.0812600608
                                                0.0944861473        0.1589561499
                                                0.1382660268        0.2740973092
                                                0.2009969402        0.4417717846
                                                0.2930368756        0.6858135567
                                                0.4292487747        1.0424847871
                                                0.6327506748        1.5665572986
                                                0.9453749778        2.3438589856
                                                1.4648635562        3.5243053316
                                                2.5668173688        5.4521402624
 
 tau scaled:   1.4481913662692858E-002   7.7714330433033788E-002  0.19763916439600343       0.38661010493998810       0.66665422843597766        1.0744688777958675        1.6680226045183213        2.5355115434411579        3.8101506737776196        5.7006889574601836        8.5717479636147935        13.260591178637364     
 
 
 omega scaled:   7.3907239300081140E-002  0.23210232149161919       0.42332633317668605       0.67619809362932348        1.0305338666064747        1.5451661053230954        2.3112001112505509        3.4777606753752668        5.3122951399113258        8.3811071094439296        14.291397889658530        30.981132319933330     
 
 
 weights_cos_tf_t_to_w
   7.4753425580313532E-002   7.4343665540932885E-002   7.5082447824688037E-002   7.4130022676299270E-002   7.5195971484164112E-002   7.4078369732955424E-002   7.5222552623582642E-002   7.4055638278987049E-002   7.5257434742187060E-002   7.3920358247086385E-002   7.5911335817229128E-002   6.9547351579180863E-002  0.17986302572775437       0.18137088335142706       0.17864972411839158       0.18216456759040475       0.17821626407401259       0.18238539740387211       0.17805556929570548       0.18261047833114832       0.17756345083322500       0.18438615050309548       0.16372435524307100       0.11488837786808379       0.30430033868123790       0.30105943472460472       0.30692503219311490       0.29930159127802319       0.30797256383161326       0.29857969861514189       0.30888721622192838       0.29653608084019623       0.31648005950854469       0.43003427995684929       0.26506024390672245        2.9687275863913343E-002  0.45806837011674745       0.46393804846119524       0.45323463727596230       0.46737915364016008       0.45071528629216639       0.47022240996405007       0.44424157949561421       0.51086131067539575       0.49589033853201742       0.41986985982485570       0.19731936546679946       -1.0982878666057757E-002  0.67516403131334635       0.66526716905550343       0.68364093844861817       0.65833441594948661       0.69111067775496260       0.64158044155254657        1.3036138076965806       0.71147076180643065       0.61619524434588768       0.44281440011290546        5.2144776822148312E-002  -1.5855089155868817E-002  0.97354640271885184       0.98978158444458741       0.95835605102180665        1.0064096361693686       0.92194237237029220       0.64293445968698226        1.0294400925339808       0.88834078771345937       0.72996918337978323       0.15643437361775808       -2.0490536862977870E-002   6.3699409440060280E-003   1.4320869540617007        1.4052554162414430        1.4627319424229086        1.3406416214525283        1.1179001040102536        1.4991391203828890        1.2819939668709062        1.1134958109122657       0.34002690688480697       0.33989831144536170       -3.3034146004068329E-002   7.3838862805900999E-003   2.0773023786957201        2.1244089069146050        1.9883059263117846        1.6324798646257526        2.1954339399283880        1.8634423884555271        1.6617151235537886       0.60669443333989614       0.17712804749233835        3.2581638556637531E-002   4.9595390498670629E-002   8.2067244745190630E-004   3.0961073507863284        2.9966487446358219        1.0315867122678022        3.2362951162608899        2.7423280359634044        2.4645179928293754       0.98110704024706619       0.25062221000250379      -0.27518617177192323        1.6063855559186612E-002   7.3930217835341139E-003   2.7271023590759464E-003   4.5637172817830391        5.0011201205970011        4.8467215062964772        4.1285579029751762        3.6607921534390391        1.4878643923819757       0.38298414195542468      -0.15569320410816456        6.7237300350855733E-002   1.2258182970350995E-002   2.9328543515749687E-003  -6.6550105738473714E-004   7.2158222464398829        7.7312192118428582        6.4880317085380632        5.4882304924045533        2.0876698833137444       0.60532484550839538      -0.24653503778547461       -1.4732256555964567       -1.1545779288026039       -8.3339335629095679E-003   2.3877939774203413E-003  -4.5437554513888898E-003   11.954453829229374        11.322750379675309        8.2081190691223256        2.4409851131448974        1.4053788363568811        3.0470527463885735       0.11727698968968701        6.9516984465490220E-002   6.8426544492870486E-002   1.7430882389719432E-002   4.0744040985824731E-003   5.4221714971745762E-004
 
 weights_cos_tf_w_to_t
   4.7598844378540547E-002   4.7579344980478354E-002   4.7611019150582433E-002   4.7562211596116545E-002   4.7636029156218396E-002   4.7526935809591990E-002   4.7682794611887160E-002   4.7466912345434722E-002   4.7765676058666377E-002   4.7325835896992283E-002   4.8106889905951730E-002   4.5657069464826887E-002   5.4275149920299602E-002   5.4339999015342921E-002   5.4234491262807952E-002   5.4397687864468962E-002   5.4148824113853418E-002   5.4523150843249921E-002   5.3967532598773731E-002   5.4806350862894787E-002   5.3368414526067463E-002   5.7949198663034052E-002   5.8378517498697977E-002   4.9397990213275782E-002   6.8977649763620599E-002   6.8846375553508699E-002   6.9060758339161921E-002   6.8726105990392430E-002   6.9247057945677454E-002   6.8426505718657174E-002   6.9784438482290378E-002   6.6991859388220859E-002   3.6438048019082313E-002   7.2013151725643515E-002   6.3193080561652307E-002   4.5665021822541375E-002   9.4038337413663992E-002   9.4279370679997407E-002   9.3882864739227731E-002   9.4513492771809329E-002   9.3486965513629020E-002   9.5292113140215337E-002   9.1094070920334488E-002   8.0392757879191895E-002   9.7975277672200489E-002   8.5434207679879012E-002   7.3134123440213167E-002   1.8854839666494570E-002  0.13466417059278518       0.13422904167207583       0.13495480075526353       0.13375576642293494       0.13591390530913064       0.13067900228241788       0.11607541656525527       0.13984707132706822       0.12147776700048378       0.10812106072023410        4.0326821726882074E-002   1.6346903192565598E-002  0.19753956223882385       0.19834061507798070       0.19696792055530332       0.19942969584663725       0.19361689657459152       0.15706309707482635       0.20551208887928166       0.17912661579427352       0.16006444326198424        6.5539932835188330E-002   1.8068349575525219E-002   5.8379015949210120E-002  0.29803366257411329       0.29647985905687879       0.29929622455266547       0.29310529737163959       0.45786684949054690       0.30898006394105598       0.27142319663780839       0.23942984154949848        9.7273227497690198E-002   2.6720505380419968E-002  -1.2447066593830249E-002   4.0016583456461696E-003  0.45745474568328948       0.46077724152272459       0.45392407996775019       0.48787476012633252       0.47781317001036416       0.42226138260277507       0.36272641245292558       0.13719620177328565        4.0666828397800149E-002  -1.9118969638114474E-002 -0.13883508421042462        4.5295264680048587E-003  0.73937419099289414       0.73090281997606898       0.75633844564702746       0.78064137445513981       0.68207848479765310       0.55728428165046706       0.18189116431383612        6.9244246371684859E-002  -8.4072615114181751E-002   1.6631252000867392E-002 -0.22536905663498161        9.3002079444159582E-003   1.2798455959636448        1.3103488626301407        1.7406309747815645        1.1850921625816540       0.85903275722369399       0.21456003392620504       0.34876555487053190        2.7093446843536671E-002   1.1270559530153082E-002   7.1770246275973427E-003  -3.8790932057877021E-003   5.6490484445488190E-003   2.7968293581110966        2.5169592621572399        2.4148944471254152        1.1954345012003404       0.22324898724863060       -6.7329171721594167E-002  -9.1799160027316903E-002  0.12138983540029727        1.5711209447423085E-002   5.2219853724144805E-003   3.3700782360146044E-003   3.9872813692738403E-003   9.6957735560927567        6.6384063643298834        1.0264873394879042      -0.26060560622598700      -0.29055555408021450       0.10108190101401159       0.10697288652073657        1.0704535895528174E-002   3.0828927218888448E-002  -6.2577190699745055E-003  -3.3631917587276225E-002   2.7669114427632353E-003
[...]
  INTEG_INFO| Maximum deviation of the imag. time fit:                  1.53E-05
  Number of fit points for analytic continuation:                              4

 *** WARNING in rpa_gw.F:513 :: Pade approximation: more parameters than ***
 *** data points. Reset # of parameters.                                 ***

  Number of pade parameters:                                                   4
  MEMORY_INFO| Memory cut:                                                     1
  MEMORY_INFO| Im. time group size for RI functions:                           1
  MEMORY_INFO| Im. time group size for local P matrix:                         1
  SPARSITY_INFO| Eps pgf orb for imaginary time:                        1.00E-30
  SPARSITY_INFO| Eps filter for imaginary time:                         1.00E-30
  SPARSITY_INFO| Second eps filter for imaginary time:                  1.00E-30
  RPA_IM_TIME_INFO| Number of periodic images T for Chi_PQ^T(it):              1
  RPA_IM_TIME_INFO| Number of periodic images T for Chi_PQ^T(it):              1
  RPA_IM_TIME_INFO| Number of periodic images T for Chi_PQ^T(it):              1
  RPA_IM_TIME_INFO| Number of periodic images T for Chi_PQ^T(it):              1
  RPA_IM_TIME_INFO| Number of periodic images T for Chi_PQ^T(it):              1
  RPA_IM_TIME_INFO| Number of periodic images T for Chi_PQ^T(it):              1
  RPA_IM_TIME_INFO| Number of periodic images T for Chi_PQ^T(it):              1
  RPA_IM_TIME_INFO| Number of periodic images T for Chi_PQ^T(it):              1
  RPA_IM_TIME_INFO| Number of periodic images T for Chi_PQ^T(it):              1
  RPA_IM_TIME_INFO| Number of periodic images T for Chi_PQ^T(it):              1
  RPA_IM_TIME_INFO| Number of periodic images T for Chi_PQ^T(it):              1
  RPA_IM_TIME_INFO| Number of periodic images T for Chi_PQ^T(it):              1
  
  GW quasiparticle energies
  -------------------------
   
  The GW quasiparticle energies are calculated according to: 
  E_GW = E_SCF + Z * ( Sigc(E_SCF) + Sigx - vxc )
   
  The energy unit of the following table is eV.  Sigc_fit is a very conservative
  estimate of the statistical error of the fitting.
   
            MO      E_SCF       Sigc   Sigc_fit   Sigx-vxc          Z       E_GW
     1 ( occ )    -10.380      0.358      0.000     -5.807      1.000    -15.829
     2 ( vir )      0.808     -0.493      0.000      3.177      1.000      3.492
     3 ( vir )      2.789     -0.320      0.000      2.494      1.000      4.962
     4 ( vir )      7.900     -0.943      0.000      3.955      1.000     10.911
     5 ( vir )      9.000     -1.049      0.000      4.904      1.000     12.855
     6 ( vir )      9.000     -1.049      0.000      4.904      1.000     12.855
     7 ( vir )     17.151     -1.653      0.000      4.657      1.000     20.156
     8 ( vir )     17.645     -1.424      0.000      4.558      1.000     20.779
     9 ( vir )     17.645     -1.424      0.000      4.558      1.000     20.779
    10 ( vir )     22.938     -1.994      0.000      5.392      1.000     26.335
    11 ( vir )     23.237     -1.404      0.000      4.380      1.000     26.212
   
  GW HOMO-LUMO gap (eV)                                                    19.32
  

  Total RI-RPA Time=                                                    3.050780
  RI-RPA energy  =                                             -0.07882413417046

  Total EXX Time=                                                       1.919859
  EXX energy  =                                                -0.65670549970493

 ENERGY| Total FORCE_EVAL ( QS ) energy (a.u.):               -1.211531911299985


 -------------------------------------------------------------------------------
 -                                                                             -
 -                                DBCSR STATISTICS                             -
 -                                                                             -
 -------------------------------------------------------------------------------
 COUNTER                                    TOTAL       BLAS       SMM       ACC
 flops    30 x    30 x    30               216000     100.0%      0.0%      0.0%
 flops    60 x    60 x    30               432000     100.0%      0.0%      0.0%
 flops    91 x    91 x    91            144685632     100.0%      0.0%      0.0%
 flops   182 x    60 x    30            345945600     100.0%      0.0%      0.0%
 flops   182 x    60 x    91            524684160     100.0%      0.0%      0.0%
 flops    30 x   210 x    30            740880000     100.0%      0.0%      0.0%
 flops    30 x   240 x    30           1185408000     100.0%      0.0%      0.0%
 flops    91 x    91 x   150           2861913600     100.0%      0.0%      0.0%
 flops inhomo. stacks                       64800     100.0%      0.0%      0.0%
 flops total                         5.804230E+09     100.0%      0.0%      0.0%
 flops max/rank                      1.219947E+09     100.0%      0.0%      0.0%
 matmuls inhomo. stacks                        36     100.0%      0.0%      0.0%
 matmuls total                               6786     100.0%      0.0%      0.0%
 number of processed stacks                  1720     100.0%      0.0%      0.0%
 average stack size                                     3.9       0.0       0.0
 marketing flops                     5.843062E+09
 -------------------------------------------------------------------------------
 # multiplications                            459
 max memory usage/rank             424.235008E+06
 # max total images/rank                        3
 # max 3D layers                                1
 # MPI messages exchanged                  192432
 MPI messages size (bytes):
  total size                       373.516992E+06
  min size                           0.000000E+00
  max size                         132.496000E+03
  average size                       1.941034E+03
 MPI breakdown and total messages size (bytes):
             size <=      128              185776                        0
       128 < size <=     8192                 102                    89280
      8192 < size <=    32768                1610                 23184000
     32768 < size <=   131072                3432                149909760
    131072 < size <=  4194304                1512                200333952
   4194304 < size <= 16777216                   0                        0
  16777216 < size                               0                        0
 -------------------------------------------------------------------------------

 *** WARNING in dbcsr_mm.F:278 :: Using a non-square number of MPI ranks ***
 *** might lead to poor performance. Used ranks: 24 Suggested: 25 49     ***

 -------------------------------------------------------------------------------
 -                                                                             -
 -                      DBCSR MESSAGE PASSING PERFORMANCE                      -
 -                                                                             -
 -------------------------------------------------------------------------------

 ROUTINE             CALLS      AVE VOLUME [Bytes]
 MP_Group               45
 MP_Bcast                9                     12.
 MP_Allreduce         2605                      8.
 MP_Alltoall          1931                  16043.
 MP_Wait             24520
 MP_ISend            17872                   4743.
 MP_IRecv            17872                     62.
 MP_Memory           32982
 -------------------------------------------------------------------------------


 MEMORY| Estimated peak process memory [MiB]                                 405

 -------------------------------------------------------------------------------
 ----                             MULTIGRID INFO                            ----
 -------------------------------------------------------------------------------
 count for grid        1:          10380          cutoff [a.u.]          200.00
 count for grid        2:           6597          cutoff [a.u.]           66.67
 count for grid        3:           2154          cutoff [a.u.]           22.22
 count for grid        4:            681          cutoff [a.u.]            7.41
 total gridlevel count  :          19812

 -------------------------------------------------------------------------------
 -                                                                             -
 -                         MESSAGE PASSING PERFORMANCE                         -
 -                                                                             -
 -------------------------------------------------------------------------------

 ROUTINE             CALLS      AVE VOLUME [Bytes]
 MP_Group                5
 MP_Bcast              165                1647636.
 MP_Allreduce          572                  13267.
 MP_Sync                75
 MP_Alltoall           333               10071339.
 MP_ISendRecv         1288                  70458.
 MP_Wait              4036
 MP_comm_split          21
 MP_ISend             4692                 179479.
 MP_IRecv             4142                 217686.
 -------------------------------------------------------------------------------


 -------------------------------------------------------------------------------
 -                                                                             -
 -                           R E F E R E N C E S                               -
 -                                                                             -
 -------------------------------------------------------------------------------
 
 CP2K version 7.0 (Development Version), the CP2K developers group (2018).
 CP2K is freely available from https://www.cp2k.org/ .

 Schuett, Ole; Messmer, Peter; Hutter, Juerg; VandeVondele, Joost. 
 Electronic Structure Calculations on Graphics Processing Units, John Wiley & Sons, Ltd, 173-190 (2016). 
 GPU-Accelerated Sparse Matrix-Matrix Multiplication for Linear Scaling Density Functional Theory.
 https://dx.doi.org/10.1002/9781118670712.ch8


 Del Ben, M; Schuett, O; Wentz, T; Messmer, P; Hutter, J;
 VandeVondele, J. 
 COMPUTER PHYSICS COMMUNICATIONS, 187, 120-129 (2015). 
 Enabling simulation at the fifth rung of DFT: Large scale RPA
 calculations with excellent time to solution.
 https://dx.doi.org/10.1016/j.cpc.2014.10.021


 Borstnik, U; VandeVondele, J; Weber, V; Hutter, J. 
 PARALLEL COMPUTING, 40 (5-6), 47-58 (2014). 
 Sparse matrix multiplication: The distributed block-compressed sparse
 row library.
 https://dx.doi.org/10.1016/j.parco.2014.03.012


 Hutter, J; Iannuzzi, M; Schiffmann, F; VandeVondele, J. 
 WILEY INTERDISCIPLINARY REVIEWS-COMPUTATIONAL MOLECULAR SCIENCE, 4 (1), 15-25 (2014). 
 CP2K: atomistic simulations of condensed matter systems.
 https://dx.doi.org/10.1002/wcms.1159


 Del Ben, M; Hutter, J; VandeVondele, J. 
 JOURNAL OF CHEMICAL THEORY AND COMPUTATION, 9 (6), 2654-2671 (2013). 
 Electron Correlation in the Condensed Phase from a Resolution of
 Identity Approach Based on the Gaussian and Plane Waves Scheme.
 https://dx.doi.org/10.1021/ct4002202


 Del Ben, M; Hutter, J; VandeVondele, J. 
 JOURNAL OF CHEMICAL THEORY AND COMPUTATION, 8 (11), 4177-4188 (2012). 
 Second-Order Moller-Plesset Perturbation Theory in the Condensed Phase:
 An Efficient and Massively Parallel Gaussian and Plane Waves Approach.
 https://dx.doi.org/10.1021/ct300531w


 Guidon, M; Hutter, J; VandeVondele, J. 
 JOURNAL OF CHEMICAL THEORY AND COMPUTATION, 5 (11), 3010-3021 (2009). 
 Robust Periodic Hartree-Fock Exchange for Large-Scale Simulations Using
 Gaussian Basis Sets.
 https://dx.doi.org/10.1021/ct900494g


 Guidon, M; Schiffmann, F; Hutter, J; VandeVondele, J. 
 JOURNAL OF CHEMICAL PHYSICS, 128 (21), 214104 (2008). 
 Ab initio molecular dynamics using hybrid density functionals.
 https://dx.doi.org/10.1063/1.2931945


 Frigo, M; Johnson, SG. 
 PROCEEDINGS OF THE IEEE, 93 (2), 216-231 (2005). 
 The design and implementation of FFTW3.
 https://dx.doi.org/10.1109/JPROC.2004.840301


 Lippert, G; Hutter, J; Parrinello, M. 
 THEORETICAL CHEMISTRY ACCOUNTS, 103 (2), 124-140 (1999). 
 The Gaussian and augmented-plane-wave density functional method for ab
 initio molecular dynamics simulations.
 https://dx.doi.org/10.1007/s002140050523


 Krack, M; Parrinello, M. 
 PHYSICAL CHEMISTRY CHEMICAL PHYSICS, 2 (10), 2105-2112 (2000). 
 All-electron ab-initio molecular dynamics.
 https://dx.doi.org/10.1039/b001167n


 Martyna, GJ; Tuckerman, ME. 
 JOURNAL OF CHEMICAL PHYSICS, 110 (6), 2810-2821 (1999). 
 A reciprocal space based method for treating long range interactions in
 ab initio and force-field-based calculations in clusters.
 https://dx.doi.org/10.1063/1.477923


 Perdew, JP; Burke, K; Ernzerhof, M. 
 PHYSICAL REVIEW LETTERS, 77 (18), 3865-3868 (1996). 
 Generalized gradient approximation made simple.
 https://dx.doi.org/10.1103/PhysRevLett.77.3865


 -------------------------------------------------------------------------------
 -                                                                             -
 -                                T I M I N G                                  -
 -                                                                             -
 -------------------------------------------------------------------------------
 SUBROUTINE                       CALLS  ASD         SELF TIME        TOTAL TIME
                                MAXIMUM       AVERAGE  MAXIMUM  AVERAGE  MAXIMUM
 CP2K                                 1  1.0    0.044    0.067   34.671   34.673
 qs_energies                          1  2.0    0.000    0.000   33.685   33.686
 scf_env_do_scf                       1  3.0    0.000    0.000   27.914   27.914
 scf_env_do_scf_inner_loop           12  4.0    0.001    0.001   27.914   27.914
 qs_ks_build_kohn_sham_matrix        13  6.8    0.003    0.004   23.651   23.654
 qs_ks_update_qs_env                 12  5.0    0.000    0.000   22.693   22.696
 rebuild_ks_matrix                   12  6.0    0.000    0.004   22.692   22.695
 pw_transfer                        270  9.5    0.027    0.030   17.476   18.043
 fft_wrap_pw1pw2                    229 10.6    0.004    0.004   17.184   17.743
 fft_wrap_pw1pw2_200                150 11.7    1.150    1.216   16.170   16.777
 fft3d_ps                           229 12.6    6.244    6.630   12.426   13.080
 qs_vxc_create                       13  7.8    0.000    0.001   11.265   11.265
 xc_vxc_pw_create                    12  9.0    0.139    0.165   11.265   11.265
 rs_pw_transfer                     132  9.4    0.004    0.004    7.046    7.258
 xc_rho_set_and_dset_create          12 10.0    0.094    0.117    5.265    5.864
 qs_rho_update_rho                   13  5.0    0.000    0.000    5.454    5.454
 calculate_rho_elec                  13  6.0    0.064    0.276    5.447    5.447
 density_rs2pw                       13  7.0    0.001    0.001    5.016    5.121
 mp2_main                             1  3.0    0.000    0.000    4.978    4.985
 sum_up_and_integrate                13  7.8    0.049    0.062    4.183    4.440
 integrate_v_rspace                  13  8.8    0.044    0.264    4.134    4.390
 mp_alltoall_z22v                   229 14.6    3.525    4.321    3.525    4.321
 potential_pw2rs                     13  9.8    0.003    0.003    4.056    4.066
 yz_to_x                            115 13.2    0.988    1.130    3.026    3.680
 x_to_yz                            114 14.1    1.660    1.843    3.147    3.357
 prepare_gapw_den                    13  7.8    0.000    0.000    3.167    3.228
 rs_pw_transfer_PW2RS_200            27 10.7    1.658    1.771    2.974    3.094
 mp2_gpw_main                         1  4.0    0.000    0.001    3.051    3.051
 put_rho0_on_grid                    13  8.8    0.021    0.024    2.985    3.046
 mp_waitany                        2292 11.3    2.506    3.025    2.506    3.025
 rpa_ri_compute_en                    1  5.0    0.000    0.000    2.876    2.876
 rpa_num_int                          1  6.0    0.001    0.002    2.875    2.875
 rs_pw_transfer_RS2PW_200            27  9.9    1.530    1.660    2.676    2.791
 pw_gather_p                        115 12.2    1.741    1.924    1.741    1.924
 compute_vec_Sigma_x_minus_vxc_       1  4.0    0.000    0.000    1.920    1.920
 pw_scatter_p                       114 13.1    1.816    1.889    1.816    1.889
 integrate_vhg0_rspace               13  7.8    0.019    0.021    1.694    1.771
 mp_sum_d                           879  5.3    1.078    1.420    1.078    1.420
 pw_poisson_solve                    14  7.6    0.405    0.420    1.180    1.181
 xc_functional_eval                  36 10.9    0.000    0.000    0.496    1.079
 pbe_lda_eval                        36 11.9    0.495    1.078    0.495    1.078
 rs_grid_zero                       119  9.2    0.935    1.019    0.935    1.019
 dbcsr_multiply_generic             459  9.8    0.018    0.021    0.915    1.013
 integrate_four_center                1  5.0    0.003    0.013    0.957    0.958
 pw_derive                           72 10.5    0.795    0.911    0.795    0.911
 mp_sum_dm                           84  7.7    0.495    0.908    0.495    0.908
 GW_postprocessing                    1  7.0    0.000    0.000    0.875    0.875
 compute_self_energy_im_time_gw       1  8.0    0.001    0.001    0.875    0.875
 qs_init_subsys                       1  2.0    0.002    0.002    0.844    0.845
 qs_env_setup                         1  3.0    0.000    0.000    0.773    0.803
 qs_env_rebuild_pw_env                2  3.5    0.000    0.000    0.773    0.802
 pw_env_rebuild                       1  5.0    0.001    0.001    0.773    0.802
 pw_grid_setup                        5  6.0    0.000    0.000    0.755    0.756
 pw_grid_setup_internal               5  7.0    0.017    0.018    0.755    0.756
 pw_copy                            168 10.2    0.656    0.712    0.656    0.712
 rs_pw_transfer_PW2RS_70             13 11.8    0.284    0.303    0.595    0.703
 -------------------------------------------------------------------------------

 The number of warnings for this run is : 3
 
 -------------------------------------------------------------------------------
  **** **** ******  **  PROGRAM ENDED AT                 2019-05-31 10:42:43.490
 ***** ** ***  *** **   PROGRAM RAN ON                                    tcopt4
 **    ****   ******    PROGRAM RAN BY                                   wilhelm
 ***** **    ** ** **   PROGRAM PROCESS ID                                 43250
  **** **  *******  **  PROGRAM STOPPED IN /data/wilhelm/2_job_test/11_GW100/3_c
                                           alcs/06_H2
