 DBCSR| CPU Multiplication driver                                           BLAS
 DBCSR| Multrec recursion limit                                              512
 DBCSR| Multiplication stack size                                           1000
 DBCSR| Maximum elements for images                                    UNLIMITED
 DBCSR| Multiplicative factor virtual images                                   1
 DBCSR| Use multiplication densification                                       T
 DBCSR| Multiplication size stacks                                             3
 DBCSR| Number of 3D layers                                               SINGLE
 DBCSR| Use MPI memory allocation                                              T
 DBCSR| Use RMA algorithm                                                      F
 DBCSR| Use Communication thread                                               T
 DBCSR| Communication thread load                                             87


  **** **** ******  **  PROGRAM STARTED AT               2019-06-07 02:55:52.266
 ***** ** ***  *** **   PROGRAM STARTED ON                                tcopt4
 **    ****   ******    PROGRAM STARTED BY                               wilhelm
 ***** **    ** ** **   PROGRAM PROCESS ID                                 50854
  **** **  *******  **  PROGRAM STARTED IN /data/wilhelm/2_job_test/11_GW100/3_c
                                           alcs/02_Ne

 CP2K| version string:                    CP2K version 7.0 (Development Version)
 CP2K| source code revision number:                                  git:bc2813a
 CP2K| cp2kflags: libint fftw3 libxc pexsi elpa=201705 parallel mpi3 scalapack q
 CP2K|            uip libderiv_max_am1=5 libint_max_am=6
 CP2K| is freely available from                            https://www.cp2k.org/
 CP2K| Program compiled at                         Sun Jun  2 14:38:23 CEST 2019
 CP2K| Program compiled on                                                tcopt4
 CP2K| Program compiled for                            local_valgrind_March_2019
 CP2K| Data directory path              /data/wilhelm/1_git_repository/cp2k/data
 CP2K| Input file name                                                    GW.inp

 GLOBAL| Force Environment number                                              1
 GLOBAL| Basis set file name                              BASIS_def2_QZVP_RI_ALL
 GLOBAL| Potential file name                                           POTENTIAL
 GLOBAL| MM Potential file name                                     MM_POTENTIAL
 GLOBAL| Coordinate file name                                          02_Ne.xyz
 GLOBAL| Method name                                                        CP2K
 GLOBAL| Project name                                                   ALL_ELEC
 GLOBAL| Preferred FFT library                                             FFTW3
 GLOBAL| Preferred diagonalization lib.                                       SL
 GLOBAL| Run type                                                         ENERGY
 GLOBAL| All-to-all communication in single precision                          F
 GLOBAL| FFTs using library dependent lengths                                  F
 GLOBAL| Global print level                                               MEDIUM
 GLOBAL| MPI I/O enabled                                                       T
 GLOBAL| Total number of message passing processes                            24
 GLOBAL| Number of threads for this process                                    1
 GLOBAL| This output is from process                                           0
 GLOBAL| CPU model name :  Intel(R) Xeon(R) CPU E5-2697 v3 @ 2.60GHz

 MEMORY| system memory details [Kb]
 MEMORY|                        rank 0           min           max       average
 MEMORY| MemTotal            396954008     396954008     396954008     396954008
 MEMORY| MemFree             358107868     358107868     358107868     358107868
 MEMORY| Buffers                273292        273292        273292        273292
 MEMORY| Cached               34497568      34497568      34497568      34497568
 MEMORY| Slab                  1188072       1188072       1188072       1188072
 MEMORY| SReclaimable          1051880       1051880       1051880       1051880
 MEMORY| MemLikelyFree       393930608     393930608     393930608     393930608


 *** Fundamental physical constants (SI units) ***

 *** Literature: B. J. Mohr and B. N. Taylor,
 ***             CODATA recommended values of the fundamental physical
 ***             constants: 2006, Web Version 5.1
 ***             http://physics.nist.gov/constants

 Speed of light in vacuum [m/s]                             2.99792458000000E+08
 Magnetic constant or permeability of vacuum [N/A**2]       1.25663706143592E-06
 Electric constant or permittivity of vacuum [F/m]          8.85418781762039E-12
 Planck constant (h) [J*s]                                  6.62606896000000E-34
 Planck constant (h-bar) [J*s]                              1.05457162825177E-34
 Elementary charge [C]                                      1.60217648700000E-19
 Electron mass [kg]                                         9.10938215000000E-31
 Electron g factor [ ]                                     -2.00231930436220E+00
 Proton mass [kg]                                           1.67262163700000E-27
 Fine-structure constant                                    7.29735253760000E-03
 Rydberg constant [1/m]                                     1.09737315685270E+07
 Avogadro constant [1/mol]                                  6.02214179000000E+23
 Boltzmann constant [J/K]                                   1.38065040000000E-23
 Atomic mass unit [kg]                                      1.66053878200000E-27
 Bohr radius [m]                                            5.29177208590000E-11

 *** Conversion factors ***

 [u] -> [a.u.]                                              1.82288848426455E+03
 [Angstrom] -> [Bohr] = [a.u.]                              1.88972613288564E+00
 [a.u.] = [Bohr] -> [Angstrom]                              5.29177208590000E-01
 [a.u.] -> [s]                                              2.41888432650478E-17
 [a.u.] -> [fs]                                             2.41888432650478E-02
 [a.u.] -> [J]                                              4.35974393937059E-18
 [a.u.] -> [N]                                              8.23872205491840E-08
 [a.u.] -> [K]                                              3.15774647902944E+05
 [a.u.] -> [kJ/mol]                                         2.62549961709828E+03
 [a.u.] -> [kcal/mol]                                       6.27509468713739E+02
 [a.u.] -> [Pa]                                             2.94210107994716E+13
 [a.u.] -> [bar]                                            2.94210107994716E+08
 [a.u.] -> [atm]                                            2.90362800883016E+08
 [a.u.] -> [eV]                                             2.72113838565563E+01
 [a.u.] -> [Hz]                                             6.57968392072181E+15
 [a.u.] -> [1/cm] (wave numbers)                            2.19474631370540E+05
 [a.u./Bohr**2] -> [1/cm]                                   5.14048714338585E+03
 

 CELL_TOP| Volume [angstrom^3]:                                         4096.000
 CELL_TOP| Vector a [angstrom    16.000     0.000     0.000    |a| =      16.000
 CELL_TOP| Vector b [angstrom     0.000    16.000     0.000    |b| =      16.000
 CELL_TOP| Vector c [angstrom     0.000     0.000    16.000    |c| =      16.000
 CELL_TOP| Angle (b,c), alpha [degree]:                                   90.000
 CELL_TOP| Angle (a,c), beta  [degree]:                                   90.000
 CELL_TOP| Angle (a,b), gamma [degree]:                                   90.000
 CELL_TOP| Numerically orthorhombic:                                         YES

 GENERATE|  Preliminary Number of Bonds generated:                             0
 GENERATE|  Achieved consistency in connectivity generation.

 CELL| Volume [angstrom^3]:                                             4096.000
 CELL| Vector a [angstrom]:      16.000     0.000     0.000    |a| =      16.000
 CELL| Vector b [angstrom]:       0.000    16.000     0.000    |b| =      16.000
 CELL| Vector c [angstrom]:       0.000     0.000    16.000    |c| =      16.000
 CELL| Angle (b,c), alpha [degree]:                                       90.000
 CELL| Angle (a,c), beta  [degree]:                                       90.000
 CELL| Angle (a,b), gamma [degree]:                                       90.000
 CELL| Numerically orthorhombic:                                             YES

 CELL_REF| Volume [angstrom^3]:                                         4096.000
 CELL_REF| Vector a [angstrom    16.000     0.000     0.000    |a| =      16.000
 CELL_REF| Vector b [angstrom     0.000    16.000     0.000    |b| =      16.000
 CELL_REF| Vector c [angstrom     0.000     0.000    16.000    |c| =      16.000
 CELL_REF| Angle (b,c), alpha [degree]:                                   90.000
 CELL_REF| Angle (a,c), beta  [degree]:                                   90.000
 CELL_REF| Angle (a,b), gamma [degree]:                                   90.000
 CELL_REF| Numerically orthorhombic:                                         YES

 *******************************************************************************
 *******************************************************************************
 **                                                                           **
 **     #####                         ##              ##                      **
 **    ##   ##            ##          ##              ##                      **
 **   ##     ##                       ##            ######                    **
 **   ##     ##  ##   ##  ##   #####  ##  ##   ####   ##    #####    #####    **
 **   ##     ##  ##   ##  ##  ##      ## ##   ##      ##   ##   ##  ##   ##   **
 **   ##  ## ##  ##   ##  ##  ##      ####     ###    ##   ######   ######    **
 **    ##  ###   ##   ##  ##  ##      ## ##      ##   ##   ##       ##        **
 **     #######   #####   ##   #####  ##  ##  ####    ##    #####   ##        **
 **           ##                                                    ##        **
 **                                                                           **
 **                                                ... make the atoms dance   **
 **                                                                           **
 **            Copyright (C) by CP2K developers group (2000 - 2019)           **
 **                                                                           **
 *******************************************************************************

 DFT| Spin restricted Kohn-Sham (RKS) calculation                            RKS
 DFT| Multiplicity                                                             1
 DFT| Number of spin states                                                    1
 DFT| Charge                                                                   0
 DFT| Self-interaction correction (SIC)                                       NO
 DFT| Cutoffs: density                                              1.000000E-10
 DFT|          gradient                                             1.000000E-10
 DFT|          tau                                                  1.000000E-10
 DFT|          cutoff_smoothing_range                               0.000000E+00
 DFT| XC density smoothing                                                  NONE
 DFT| XC derivatives                                                          PW
 FUNCTIONAL| ROUTINE=NEW
 FUNCTIONAL| PBE:
 FUNCTIONAL| J.P.Perdew, K.Burke, M.Ernzerhof, Phys. Rev. Letter, vol. 77, n 18,
 FUNCTIONAL|  pp. 3865-3868, (1996){spin unpolarized}                           

 QS| Method:                                                                GAPW
 QS| Density plane wave grid type                        NON-SPHERICAL FULLSPACE
 QS| Number of grid levels:                                                    4
 QS| Density cutoff [a.u.]:                                                200.0
 QS| Multi grid cutoff [a.u.]: 1) grid level                               200.0
 QS|                           2) grid level                                66.7
 QS|                           3) grid level                                22.2
 QS|                           4) grid level                                 7.4
 QS| Grid level progression factor:                                          3.0
 QS| Relative density cutoff [a.u.]:                                        25.0
 QS| Consistent realspace mapping and integration 
 QS| Interaction thresholds: eps_pgf_orb:                                1.0E-05
 QS|                         eps_filter_matrix:                          0.0E+00
 QS|                         eps_core_charge:                            1.0E-12
 QS|                         eps_rho_gspace:                             1.0E-10
 QS|                         eps_rho_rspace:                             1.0E-10
 QS|                         eps_gvg_rspace:                             1.0E-05
 QS|                         eps_ppl:                                    1.0E-02
 QS|                         eps_ppnl:                                   1.0E-07
 QS| GAPW|                   eps_fit:                                    1.0E-04
 QS| GAPW|                   eps_iso:                                    1.0E-12
 QS| GAPW|                   eps_svd:                                    1.0E-08
 QS| GAPW|                   eps_cpc:                                    1.0E-10
 QS| GAPW|   atom-r-grid: quadrature:                 GC_LOG                        
 QS| GAPW|      atom-s-grid:  max l :                                          8
 QS| GAPW|      max_l_rho0 :                                                   2


 ATOMIC KIND INFORMATION

  1. Atomic kind: Ne                                    Number of atoms:       1

     Orbital Basis Set                                                 def2-QZVP

       Number of orbital shell sets:                                          17
       Number of orbital shells:                                              17
       Number of primitive Cartesian functions:                               30
       Number of Cartesian basis functions:                                   72
       Number of spherical basis functions:                                   57
       Norm type:                                                              2

       Normalised Cartesian orbitals:

                        Set   Shell   Orbital            Exponent    Coefficient

                          1       1    1s           160676.279550       0.446090
                                                     23953.195039       0.837223
                                                      5437.506371       1.444713
                                                      1544.274102       2.328247
                                                       507.888143       3.512920
                                                       184.948477       4.867126
                                                        72.522952       5.787659
                                                        30.088714       5.253304

                          2       1    1s              120.684349       2.692261
                                                        36.074295       9.627353

                          3       1    1s               13.052091       4.894070

                          4       1    1s                5.797478       2.662805

                          5       1    1s                2.047863       1.220073

                          6       1    1s                0.802146       0.604088

                          7       1    1s                0.305487       0.292856

                          8       1    1px             498.433975       2.979644
                                                       118.141092       4.137902
                                                        38.032530       5.056380
                                                        14.183732       5.260574
                                                         5.786419       4.400016
                                                         2.459962       2.645742
                          8       1    1py             498.433975       2.979644
                                                       118.141092       4.137902
                                                        38.032530       5.056380
                                                        14.183732       5.260574
                                                         5.786419       4.400016
                                                         2.459962       2.645742
                          8       1    1pz             498.433975       2.979644
                                                       118.141092       4.137902
                                                        38.032530       5.056380
                                                        14.183732       5.260574
                                                         5.786419       4.400016
                                                         2.459962       2.645742

                          9       1    1px               1.042200       1.500994
                          9       1    1py               1.042200       1.500994
                          9       1    1pz               1.042200       1.500994

                         10       1    1px               0.429877       0.496159
                         10       1    1py               0.429877       0.496159
                         10       1    1pz               0.429877       0.496159

                         11       1    1px               0.168897       0.154336
                         11       1    1py               0.168897       0.154336
                         11       1    1pz               0.168897       0.154336

                         12       1    1dx2              6.471000      43.212501
                         12       1    1dxy              6.471000      74.846248
                         12       1    1dxz              6.471000      74.846248
                         12       1    1dy2              6.471000      43.212501
                         12       1    1dyz              6.471000      74.846248
                         12       1    1dz2              6.471000      43.212501

                         13       1    1dx2              2.213000       6.608866
                         13       1    1dxy              2.213000      11.446891
                         13       1    1dxz              2.213000      11.446891
                         13       1    1dy2              2.213000       6.608866
                         13       1    1dyz              2.213000      11.446891
                         13       1    1dz2              2.213000       6.608866

                         14       1    1dx2              0.747000       0.987917
                         14       1    1dxy              0.747000       1.711123
                         14       1    1dxz              0.747000       1.711123
                         14       1    1dy2              0.747000       0.987917
                         14       1    1dyz              0.747000       1.711123
                         14       1    1dz2              0.747000       0.987917

                         15       1    1fx3              4.657000      46.902229
                         15       1    1fx2y             4.657000     104.876573
                         15       1    1fx2z             4.657000     104.876573
                         15       1    1fxy2             4.657000     104.876573
                         15       1    1fxyz             4.657000     181.651553
                         15       1    1fxz2             4.657000     104.876573
                         15       1    1fy3              4.657000      46.902229
                         15       1    1fy2z             4.657000     104.876573
                         15       1    1fyz2             4.657000     104.876573
                         15       1    1fz3              4.657000      46.902229

                         16       1    1fx3              1.524000       3.799012
                         16       1    1fx2y             1.524000       8.494848
                         16       1    1fx2z             1.524000       8.494848
                         16       1    1fxy2             1.524000       8.494848
                         16       1    1fxyz             1.524000      14.713509
                         16       1    1fxz2             1.524000       8.494848
                         16       1    1fy3              1.524000       3.799012
                         16       1    1fy2z             1.524000       8.494848
                         16       1    1fyz2             1.524000       8.494848
                         16       1    1fz3              1.524000       3.799012

                         17       1    1gx4              2.983000      22.476665
                         17       1    1gx3y             2.983000      59.467666
                         17       1    1gx3z             2.983000      59.467666
                         17       1    1gx2y2            2.983000      76.772426
                         17       1    1gx2yz            2.983000     132.973743
                         17       1    1gx2z2            2.983000      76.772426
                         17       1    1gxy3             2.983000      59.467666
                         17       1    1gxy2z            2.983000     132.973743
                         17       1    1gxyz2            2.983000     132.973743
                         17       1    1gxz3             2.983000      59.467666
                         17       1    1gy4              2.983000      22.476665
                         17       1    1gy3z             2.983000      59.467666
                         17       1    1gy2z2            2.983000      76.772426
                         17       1    1gyz3             2.983000      59.467666
                         17       1    1gz4              2.983000      22.476665

     RI Auxiliary Basis Set                                                RI-5Z

       Number of orbital shell sets:                                          39
       Number of orbital shells:                                              39
       Number of primitive Cartesian functions:                               39
       Number of Cartesian basis functions:                                  287
       Number of spherical basis functions:                                  193
       Norm type:                                                              2

       Normalised Cartesian orbitals:

                        Set   Shell   Orbital            Exponent    Coefficient

                          1       1    1s              812.720000     108.484028

                          2       1    1s              174.700000      34.247571

                          3       1    1s               44.592600      12.298643

                          4       1    1s               26.694500       8.370019

                          5       1    1s                9.386180       3.821877

                          6       1    1s                5.419070       2.531359

                          7       1    1s                3.405580       1.786707

                          8       1    1s                1.556700       0.993262

                          9       1    1s                0.771454       0.586668

                         10       1    1s                0.370078       0.338166

                         11       1    1px             148.323000     737.820494
                         11       1    1py             148.323000     737.820494
                         11       1    1pz             148.323000     737.820494

                         12       1    1px              40.018100     143.469858
                         12       1    1py              40.018100     143.469858
                         12       1    1pz              40.018100     143.469858

                         13       1    1px              18.457600      54.532967
                         13       1    1py              18.457600      54.532967
                         13       1    1pz              18.457600      54.532967

                         14       1    1px               8.050320      19.328872
                         14       1    1py               8.050320      19.328872
                         14       1    1pz               8.050320      19.328872

                         15       1    1px               4.381080       9.034759
                         15       1    1py               4.381080       9.034759
                         15       1    1pz               4.381080       9.034759

                         16       1    1px               2.075890       3.551776
                         16       1    1py               2.075890       3.551776
                         16       1    1pz               2.075890       3.551776

                         17       1    1px               1.102230       1.609831
                         17       1    1py               1.102230       1.609831
                         17       1    1pz               1.102230       1.609831

                         18       1    1px               0.668960       0.862363
                         18       1    1py               0.668960       0.862363
                         18       1    1pz               0.668960       0.862363

                         19       1    1dx2             34.484200     807.690041
                         19       1    1dxy             34.484200    1398.960187
                         19       1    1dxz             34.484200    1398.960187
                         19       1    1dy2             34.484200     807.690041
                         19       1    1dyz             34.484200    1398.960187
                         19       1    1dz2             34.484200     807.690041

                         20       1    1dx2             10.919700     107.963808
                         20       1    1dxy             10.919700     186.998801
                         20       1    1dxz             10.919700     186.998801
                         20       1    1dy2             10.919700     107.963808
                         20       1    1dyz             10.919700     186.998801
                         20       1    1dz2             10.919700     107.963808

                         21       1    1dx2              6.880030      48.105257
                         21       1    1dxy              6.880030      83.320749
                         21       1    1dxz              6.880030      83.320749
                         21       1    1dy2              6.880030      48.105257
                         21       1    1dyz              6.880030      83.320749
                         21       1    1dz2              6.880030      48.105257

                         22       1    1dx2              3.533060      14.985586
                         22       1    1dxy              3.533060      25.955796
                         22       1    1dxz              3.533060      25.955796
                         22       1    1dy2              3.533060      14.985586
                         22       1    1dyz              3.533060      25.955796
                         22       1    1dz2              3.533060      14.985586

                         23       1    1dx2              2.197710       6.529165
                         23       1    1dxy              2.197710      11.308845
                         23       1    1dxz              2.197710      11.308845
                         23       1    1dy2              2.197710       6.529165
                         23       1    1dyz              2.197710      11.308845
                         23       1    1dz2              2.197710       6.529165

                         24       1    1dx2              1.103520       1.955577
                         24       1    1dxy              1.103520       3.387158
                         24       1    1dxz              1.103520       3.387158
                         24       1    1dy2              1.103520       1.955577
                         24       1    1dyz              1.103520       3.387158
                         24       1    1dz2              1.103520       1.955577

                         25       1    1dx2              0.449220       0.405707
                         25       1    1dxy              0.449220       0.702706
                         25       1    1dxz              0.449220       0.702706
                         25       1    1dy2              0.449220       0.405707
                         25       1    1dyz              0.449220       0.702706
                         25       1    1dz2              0.449220       0.405707

                         26       1    1fx3             24.052600    1886.118673
                         26       1    1fx2y            24.052600    4217.489567
                         26       1    1fx2z            24.052600    4217.489567
                         26       1    1fxy2            24.052600    4217.489567
                         26       1    1fxyz            24.052600    7304.906211
                         26       1    1fxz2            24.052600    4217.489567
                         26       1    1fy3             24.052600    1886.118673
                         26       1    1fy2z            24.052600    4217.489567
                         26       1    1fyz2            24.052600    4217.489567
                         26       1    1fz3             24.052600    1886.118673

                         27       1    1fx3             11.324600     346.342597
                         27       1    1fx2y            11.324600     774.445591
                         27       1    1fx2z            11.324600     774.445591
                         27       1    1fxy2            11.324600     774.445591
                         27       1    1fxyz            11.324600    1341.379112
                         27       1    1fxz2            11.324600     774.445591
                         27       1    1fy3             11.324600     346.342597
                         27       1    1fy2z            11.324600     774.445591
                         27       1    1fyz2            11.324600     774.445591
                         27       1    1fz3             11.324600     346.342597

                         28       1    1fx3              6.356670      94.454184
                         28       1    1fx2y             6.356670     211.205975
                         28       1    1fx2z             6.356670     211.205975
                         28       1    1fxy2             6.356670     211.205975
                         28       1    1fxyz             6.356670     365.819480
                         28       1    1fxz2             6.356670     211.205975
                         28       1    1fy3              6.356670      94.454184
                         28       1    1fy2z             6.356670     211.205975
                         28       1    1fyz2             6.356670     211.205975
                         28       1    1fz3              6.356670      94.454184

                         29       1    1fx3              3.729160      28.449801
                         29       1    1fx2y             3.729160      63.615690
                         29       1    1fx2z             3.729160      63.615690
                         29       1    1fxy2             3.729160      63.615690
                         29       1    1fxyz             3.729160     110.185607
                         29       1    1fxz2             3.729160      63.615690
                         29       1    1fy3              3.729160      28.449801
                         29       1    1fy2z             3.729160      63.615690
                         29       1    1fyz2             3.729160      63.615690
                         29       1    1fz3              3.729160      28.449801

                         30       1    1fx3              2.028310       7.227809
                         30       1    1fx2y             2.028310      16.161873
                         30       1    1fx2z             2.028310      16.161873
                         30       1    1fxy2             2.028310      16.161873
                         30       1    1fxyz             2.028310      27.993186
                         30       1    1fxz2             2.028310      16.161873
                         30       1    1fy3              2.028310       7.227809
                         30       1    1fy2z             2.028310      16.161873
                         30       1    1fyz2             2.028310      16.161873
                         30       1    1fz3              2.028310       7.227809

                         31       1    1fx3              1.024880       1.555854
                         31       1    1fx2y             1.024880       3.478995
                         31       1    1fx2z             1.024880       3.478995
                         31       1    1fxy2             1.024880       3.478995
                         31       1    1fxyz             1.024880       6.025795
                         31       1    1fxz2             1.024880       3.478995
                         31       1    1fy3              1.024880       1.555854
                         31       1    1fy2z             1.024880       3.478995
                         31       1    1fyz2             1.024880       3.478995
                         31       1    1fz3              1.024880       1.555854

                         32       1    1gx4             11.760300     977.430815
                         32       1    1gx3y            11.760300    2586.038861
                         32       1    1gx3z            11.760300    2586.038861
                         32       1    1gx2y2           11.760300    3338.561814
                         32       1    1gx2yz           11.760300    5782.558686
                         32       1    1gx2z2           11.760300    3338.561814
                         32       1    1gxy3            11.760300    2586.038861
                         32       1    1gxy2z           11.760300    5782.558686
                         32       1    1gxyz2           11.760300    5782.558686
                         32       1    1gxz3            11.760300    2586.038861
                         32       1    1gy4             11.760300     977.430815
                         32       1    1gy3z            11.760300    2586.038861
                         32       1    1gy2z2           11.760300    3338.561814
                         32       1    1gyz3            11.760300    2586.038861
                         32       1    1gz4             11.760300     977.430815

                         33       1    1gx4              6.187520     167.149899
                         33       1    1gx3y             6.187520     442.237064
                         33       1    1gx3z             6.187520     442.237064
                         33       1    1gx2y2            6.187520     570.925595
                         33       1    1gx2yz            6.187520     988.872138
                         33       1    1gx2z2            6.187520     570.925595
                         33       1    1gxy3             6.187520     442.237064
                         33       1    1gxy2z            6.187520     988.872138
                         33       1    1gxyz2            6.187520     988.872138
                         33       1    1gxz3             6.187520     442.237064
                         33       1    1gy4              6.187520     167.149899
                         33       1    1gy3z             6.187520     442.237064
                         33       1    1gy2z2            6.187520     570.925595
                         33       1    1gyz3             6.187520     442.237064
                         33       1    1gz4              6.187520     167.149899

                         34       1    1gx4              3.483490      34.433050
                         34       1    1gx3y             3.483490      91.101286
                         34       1    1gx3z             3.483490      91.101286
                         34       1    1gx2y2            3.483490     117.611255
                         34       1    1gx2yz            3.483490     203.708668
                         34       1    1gx2z2            3.483490     117.611255
                         34       1    1gxy3             3.483490      91.101286
                         34       1    1gxy2z            3.483490     203.708668
                         34       1    1gxyz2            3.483490     203.708668
                         34       1    1gxz3             3.483490      91.101286
                         34       1    1gy4              3.483490      34.433050
                         34       1    1gy3z             3.483490      91.101286
                         34       1    1gy2z2            3.483490     117.611255
                         34       1    1gyz3             3.483490      91.101286
                         34       1    1gz4              3.483490      34.433050

                         35       1    1gx4              1.719280       4.938995
                         35       1    1gx3y             1.719280      13.067353
                         35       1    1gx3z             1.719280      13.067353
                         35       1    1gx2y2            1.719280      16.869880
                         35       1    1gx2yz            1.719280      29.219490
                         35       1    1gx2z2            1.719280      16.869880
                         35       1    1gxy3             1.719280      13.067353
                         35       1    1gxy2z            1.719280      29.219490
                         35       1    1gxyz2            1.719280      29.219490
                         35       1    1gxz3             1.719280      13.067353
                         35       1    1gy4              1.719280       4.938995
                         35       1    1gy3z             1.719280      13.067353
                         35       1    1gy2z2            1.719280      16.869880
                         35       1    1gyz3             1.719280      13.067353
                         35       1    1gz4              1.719280       4.938995

                         36       1    1hx5              8.998630     936.305233
                         36       1    1hx4y             8.998630    2808.915698
                         36       1    1hx4z             8.998630    2808.915698
                         36       1    1hx3y2            8.998630    4290.689602
                         36       1    1hx3yz            8.998630    7431.692390
                         36       1    1hx3z2            8.998630    4290.689602
                         36       1    1hx2y3            8.998630    4290.689602
                         36       1    1hx2y2z           8.998630    9594.273621
                         36       1    1hx2yz2           8.998630    9594.273621
                         36       1    1hx2z3            8.998630    4290.689602
                         36       1    1hxy4             8.998630    2808.915698
                         36       1    1hxy3z            8.998630    7431.692390
                         36       1    1hxy2z2           8.998630    9594.273621
                         36       1    1hxyz3            8.998630    7431.692390
                         36       1    1hxz4             8.998630    2808.915698
                         36       1    1hy5              8.998630     936.305233
                         36       1    1hy4z             8.998630    2808.915698
                         36       1    1hy3z2            8.998630    4290.689602
                         36       1    1hy2z3            8.998630    4290.689602
                         36       1    1hyz4             8.998630    2808.915698
                         36       1    1hz5              8.998630     936.305233

                         37       1    1hx5              5.230840     160.583653
                         37       1    1hx4y             5.230840     481.750960
                         37       1    1hx4z             5.230840     481.750960
                         37       1    1hx3y2            5.230840     735.886746
                         37       1    1hx3yz            5.230840    1274.593233
                         37       1    1hx3z2            5.230840     735.886746
                         37       1    1hx2y3            5.230840     735.886746
                         37       1    1hx2y2z           5.230840    1645.492788
                         37       1    1hx2yz2           5.230840    1645.492788
                         37       1    1hx2z3            5.230840     735.886746
                         37       1    1hxy4             5.230840     481.750960
                         37       1    1hxy3z            5.230840    1274.593233
                         37       1    1hxy2z2           5.230840    1645.492788
                         37       1    1hxyz3            5.230840    1274.593233
                         37       1    1hxz4             5.230840     481.750960
                         37       1    1hy5              5.230840     160.583653
                         37       1    1hy4z             5.230840     481.750960
                         37       1    1hy3z2            5.230840     735.886746
                         37       1    1hy2z3            5.230840     735.886746
                         37       1    1hyz4             5.230840     481.750960
                         37       1    1hz5              5.230840     160.583653

                         38       1    1hx5              2.734970      19.518211
                         38       1    1hx4y             2.734970      58.554633
                         38       1    1hx4z             2.734970      58.554633
                         38       1    1hx3y2            2.734970      89.443679
                         38       1    1hx3yz            2.734970     154.920997
                         38       1    1hx3z2            2.734970      89.443679
                         38       1    1hx2y3            2.734970      89.443679
                         38       1    1hx2y2z           2.734970     200.002147
                         38       1    1hx2yz2           2.734970     200.002147
                         38       1    1hx2z3            2.734970      89.443679
                         38       1    1hxy4             2.734970      58.554633
                         38       1    1hxy3z            2.734970     154.920997
                         38       1    1hxy2z2           2.734970     200.002147
                         38       1    1hxyz3            2.734970     154.920997
                         38       1    1hxz4             2.734970      58.554633
                         38       1    1hy5              2.734970      19.518211
                         38       1    1hy4z             2.734970      58.554633
                         38       1    1hy3z2            2.734970      89.443679
                         38       1    1hy2z3            2.734970      89.443679
                         38       1    1hyz4             2.734970      58.554633
                         38       1    1hz5              2.734970      19.518211

                         39       1    1ix6              5.335280     238.515925
                         39       1    1ix5y             5.335280     791.067830
                         39       1    1ix5z             5.335280     791.067830
                         39       1    1ix4y2            5.335280    1370.169674
                         39       1    1ix4yz            5.335280    2373.203491
                         39       1    1ix4z2            5.335280    1370.169674
                         39       1    1ix3y3            5.335280    1621.206622
                         39       1    1ix3y2z           5.335280    3625.128213
                         39       1    1ix3yz2           5.335280    3625.128213
                         39       1    1ix3z3            5.335280    1621.206622
                         39       1    1ix2y4            5.335280    1370.169674
                         39       1    1ix2y3z           5.335280    3625.128213
                         39       1    1ix2y2z2          5.335280    4680.020398
                         39       1    1ix2yz3           5.335280    3625.128213
                         39       1    1ix2z4            5.335280    1370.169674
                         39       1    1ixy5             5.335280     791.067830
                         39       1    1ixy4z            5.335280    2373.203491
                         39       1    1ixy3z2           5.335280    3625.128213
                         39       1    1ixy2z3           5.335280    3625.128213
                         39       1    1ixyz4            5.335280    2373.203491
                         39       1    1ixz5             5.335280     791.067830
                         39       1    1iy6              5.335280     238.515925
                         39       1    1iy5z             5.335280     791.067830
                         39       1    1iy4z2            5.335280    1370.169674
                         39       1    1iy3z3            5.335280    1621.206622
                         39       1    1iy2z4            5.335280    1370.169674
                         39       1    1iyz5             5.335280     791.067830
                         39       1    1iz6              5.335280     238.515925

     The atoms of this atomic kind are PAW atoms (GAPW):
       Hard Gaussian function radius:                                      1.512
       Rho0 radius:                                                        1.512
       Maximum GTO radius used for PAW projector construction:            24.566

     GAPW Soft Basis Set                                          def2-QZVP_soft

       Number of orbital shell sets:                                          17
       Number of orbital shells:                                              17
       Number of primitive Cartesian functions:                               11
       Number of Cartesian basis functions:                                   72
       Number of spherical basis functions:                                   57
       Norm type:                                                              2

       Normalised Cartesian orbitals:

                        Set   Shell   Orbital            Exponent    Coefficient

                          1       1    1s         

                          2       1    1s         

                          3       1    1s         

                          4       1    1s         

                          5       1    1s                2.047863       1.220073

                          6       1    1s                0.802146       0.604088

                          7       1    1s                0.305487       0.292856

                          8       1    1px               2.459962       2.645742
                          8       1    1py               2.459962       2.645742
                          8       1    1pz               2.459962       2.645742

                          9       1    1px               1.042200       1.500994
                          9       1    1py               1.042200       1.500994
                          9       1    1pz               1.042200       1.500994

                         10       1    1px               0.429877       0.496159
                         10       1    1py               0.429877       0.496159
                         10       1    1pz               0.429877       0.496159

                         11       1    1px               0.168897       0.154336
                         11       1    1py               0.168897       0.154336
                         11       1    1pz               0.168897       0.154336

                         12       1    1dx2       
                         12       1    1dxy       
                         12       1    1dxz       
                         12       1    1dy2       
                         12       1    1dyz       
                         12       1    1dz2       

                         13       1    1dx2              2.213000       6.608866
                         13       1    1dxy              2.213000      11.446891
                         13       1    1dxz              2.213000      11.446891
                         13       1    1dy2              2.213000       6.608866
                         13       1    1dyz              2.213000      11.446891
                         13       1    1dz2              2.213000       6.608866

                         14       1    1dx2              0.747000       0.987917
                         14       1    1dxy              0.747000       1.711123
                         14       1    1dxz              0.747000       1.711123
                         14       1    1dy2              0.747000       0.987917
                         14       1    1dyz              0.747000       1.711123
                         14       1    1dz2              0.747000       0.987917

                         15       1    1fx3       
                         15       1    1fx2y      
                         15       1    1fx2z      
                         15       1    1fxy2      
                         15       1    1fxyz      
                         15       1    1fxz2      
                         15       1    1fy3       
                         15       1    1fy2z      
                         15       1    1fyz2      
                         15       1    1fz3       

                         16       1    1fx3              1.524000       3.799012
                         16       1    1fx2y             1.524000       8.494848
                         16       1    1fx2z             1.524000       8.494848
                         16       1    1fxy2             1.524000       8.494848
                         16       1    1fxyz             1.524000      14.713509
                         16       1    1fxz2             1.524000       8.494848
                         16       1    1fy3              1.524000       3.799012
                         16       1    1fy2z             1.524000       8.494848
                         16       1    1fyz2             1.524000       8.494848
                         16       1    1fz3              1.524000       3.799012

                         17       1    1gx4              2.983000      22.476665
                         17       1    1gx3y             2.983000      59.467666
                         17       1    1gx3z             2.983000      59.467666
                         17       1    1gx2y2            2.983000      76.772426
                         17       1    1gx2yz            2.983000     132.973743
                         17       1    1gx2z2            2.983000      76.772426
                         17       1    1gxy3             2.983000      59.467666
                         17       1    1gxy2z            2.983000     132.973743
                         17       1    1gxyz2            2.983000     132.973743
                         17       1    1gxz3             2.983000      59.467666
                         17       1    1gy4              2.983000      22.476665
                         17       1    1gy3z             2.983000      59.467666
                         17       1    1gy2z2            2.983000      76.772426
                         17       1    1gyz3             2.983000      59.467666
                         17       1    1gz4              2.983000      22.476665

     AE Potential information for                                            ALL

       Description:                                       All-electron potential
                                          Krack, Parrinello, PCCP 2, 2105 (2000)

       Gaussian exponent of the core charge distribution:              13.850416
       Electronic configuration (s p d ...):                           4   6   0


 MOLECULE KIND INFORMATION


 All atoms are their own molecule, skipping detailed information


 TOTAL NUMBERS AND MAXIMUM NUMBERS

  Total number of            - Atomic kinds:                                   1
                             - Atoms:                                          1
                             - Shell sets:                                    17
                             - Shells:                                        17
                             - Primitive Cartesian functions:                 30
                             - Cartesian basis functions:                     72
                             - Spherical basis functions:                     57

  Maximum angular momentum of the orbital basis functions:                     4


 MODULE QUICKSTEP:  ATOMIC COORDINATES IN angstrom

  Atom  Kind  Element       X           Y           Z          Z(eff)       Mass

       1     1 Ne  10    8.000000    8.000000    8.000000     10.00      20.1797




 SCF PARAMETERS         Density guess:                                   RESTART
                        --------------------------------------------------------
                        max_scf:                                             200
                        max_scf_history:                                       0
                        max_diis:                                              4
                        --------------------------------------------------------
                        eps_scf:                                        1.00E-06
                        eps_scf_history:                                0.00E+00
                        eps_diis:                                       1.00E-01
                        eps_eigval:                                     1.00E-05
                        --------------------------------------------------------
                        level_shift [a.u.]:                                 0.00
                        --------------------------------------------------------
                        Mixing method:                           DIRECT_P_MIXING
                        --------------------------------------------------------
                        No outer SCF

 PW_GRID| Information for grid number                                          1
 PW_GRID| Grid distributed over                                    24 processors
 PW_GRID| Real space group dimensions                                    24    1
 PW_GRID| the grid is blocked:                                                NO
 PW_GRID| Cutoff [a.u.]                                                    400.0
 PW_GRID| spherical cutoff:                                                   NO
 PW_GRID|   Bounds   1           -144     143                Points:         288
 PW_GRID|   Bounds   2           -144     143                Points:         288
 PW_GRID|   Bounds   3           -144     143                Points:         288
 PW_GRID| Volume element (a.u.^3)  0.1157E-02     Volume (a.u.^3)     27641.1785
 PW_GRID| Grid span                                                    FULLSPACE
 PW_GRID|   Distribution                         Average         Max         Min
 PW_GRID|   G-Vectors                           995328.0      995328      995328
 PW_GRID|   G-Rays                                3456.0        3456        3456
 PW_GRID|   Real Space Points                   995328.0      995328      995328

 PW_GRID| Information for grid number                                          2
 PW_GRID| Grid distributed over                                    24 processors
 PW_GRID| Real space group dimensions                                    24    1
 PW_GRID| the grid is blocked:                                                NO
 PW_GRID| Cutoff [a.u.]                                                    200.0
 PW_GRID| spherical cutoff:                                                   NO
 PW_GRID|   Bounds   1           -100      99                Points:         200
 PW_GRID|   Bounds   2           -100      99                Points:         200
 PW_GRID|   Bounds   3           -100      99                Points:         200
 PW_GRID| Volume element (a.u.^3)  0.3455E-02     Volume (a.u.^3)     27641.1785
 PW_GRID| Grid span                                                    FULLSPACE
 PW_GRID|   Distribution                         Average         Max         Min
 PW_GRID|   G-Vectors                           333333.3      333600      333200
 PW_GRID|   G-Rays                                1666.7        1668        1666
 PW_GRID|   Real Space Points                   333333.3      360000      320000

 PW_GRID| Information for grid number                                          3
 PW_GRID| Grid distributed over                                    24 processors
 PW_GRID| Real space group dimensions                                    24    1
 PW_GRID| the grid is blocked:                                                NO
 PW_GRID| Cutoff [a.u.]                                                     66.7
 PW_GRID| spherical cutoff:                                                   NO
 PW_GRID|   Bounds   1            -60      59                Points:         120
 PW_GRID|   Bounds   2            -60      59                Points:         120
 PW_GRID|   Bounds   3            -60      59                Points:         120
 PW_GRID| Volume element (a.u.^3)  0.1600E-01     Volume (a.u.^3)     27641.1785
 PW_GRID| Grid span                                                    FULLSPACE
 PW_GRID|   Distribution                         Average         Max         Min
 PW_GRID|   G-Vectors                            72000.0       72360       71760
 PW_GRID|   G-Rays                                 600.0         603         598
 PW_GRID|   Real Space Points                    72000.0       72000       72000

 PW_GRID| Information for grid number                                          4
 PW_GRID| Grid distributed over                                    24 processors
 PW_GRID| Real space group dimensions                                    24    1
 PW_GRID| the grid is blocked:                                                NO
 PW_GRID| Cutoff [a.u.]                                                     22.2
 PW_GRID| spherical cutoff:                                                   NO
 PW_GRID|   Bounds   1            -36      35                Points:          72
 PW_GRID|   Bounds   2            -36      35                Points:          72
 PW_GRID|   Bounds   3            -36      35                Points:          72
 PW_GRID| Volume element (a.u.^3)  0.7406E-01     Volume (a.u.^3)     27641.1785
 PW_GRID| Grid span                                                    FULLSPACE
 PW_GRID|   Distribution                         Average         Max         Min
 PW_GRID|   G-Vectors                            15552.0       15768       15408
 PW_GRID|   G-Rays                                 216.0         219         214
 PW_GRID|   Real Space Points                    15552.0       15552       15552

 PW_GRID| Information for grid number                                          5
 PW_GRID| Grid distributed over                                    24 processors
 PW_GRID| Real space group dimensions                                    24    1
 PW_GRID| the grid is blocked:                                                NO
 PW_GRID| Cutoff [a.u.]                                                      7.4
 PW_GRID| spherical cutoff:                                                   NO
 PW_GRID|   Bounds   1            -20      19                Points:          40
 PW_GRID|   Bounds   2            -20      19                Points:          40
 PW_GRID|   Bounds   3            -20      19                Points:          40
 PW_GRID| Volume element (a.u.^3)  0.4319         Volume (a.u.^3)     27641.1785
 PW_GRID| Grid span                                                    FULLSPACE
 PW_GRID|   Distribution                         Average         Max         Min
 PW_GRID|   G-Vectors                             2666.7        2720        2640
 PW_GRID|   G-Rays                                  66.7          68          66
 PW_GRID|   Real Space Points                     2666.7        3200        1600

 POISSON| Solver                                          Martyna-Tuckerman (MT)
 POISSON| MT| Alpha                                                        7.000
 POISSON| MT| Relative cutoff                                                2.0
 POISSON| Periodicity                                                       NONE

 RS_GRID| Information for grid number                                          2
 RS_GRID|   Bounds   1           -100      99                Points:         200
 RS_GRID|   Bounds   2           -100      99                Points:         200
 RS_GRID|   Bounds   3           -100      99                Points:         200
 RS_GRID| Real space distribution over                                  4 groups
 RS_GRID| Real space distribution along direction                              2
 RS_GRID| Border size                                                         23
 RS_GRID| Real space distribution over                                  6 groups
 RS_GRID| Real space distribution along direction                              3
 RS_GRID| Border size                                                         23
 RS_GRID|   Distribution                         Average         Max         Min
 RS_GRID|   Planes                                  96.0          96          96
 RS_GRID|   Distribution                         Average         Max         Min
 RS_GRID|   Planes                                  79.3          80          79

 RS_GRID| Information for grid number                                          3
 RS_GRID|   Bounds   1            -60      59                Points:         120
 RS_GRID|   Bounds   2            -60      59                Points:         120
 RS_GRID|   Bounds   3            -60      59                Points:         120
 RS_GRID| Real space distribution over                                  4 groups
 RS_GRID| Real space distribution along direction                              2
 RS_GRID| Border size                                                         25
 RS_GRID| Real space distribution over                                  6 groups
 RS_GRID| Real space distribution along direction                              3
 RS_GRID| Border size                                                         25
 RS_GRID|   Distribution                         Average         Max         Min
 RS_GRID|   Planes                                  80.0          80          80
 RS_GRID|   Distribution                         Average         Max         Min
 RS_GRID|   Planes                                  70.0          70          70

 RS_GRID| Information for grid number                                          4
 RS_GRID|   Bounds   1            -36      35                Points:          72
 RS_GRID|   Bounds   2            -36      35                Points:          72
 RS_GRID|   Bounds   3            -36      35                Points:          72
 RS_GRID| Real space fully replicated
 RS_GRID| Group size                                                           1

 RS_GRID| Information for grid number                                          5
 RS_GRID|   Bounds   1            -20      19                Points:          40
 RS_GRID|   Bounds   2            -20      19                Points:          40
 RS_GRID|   Bounds   3            -20      19                Points:          40
 RS_GRID| Real space fully replicated
 RS_GRID| Group size                                                           1
 
 RI-RPA| using GPW style
 

  HFX_INFO| Replica ID:                                                        1
  HFX_INFO| EPS_SCHWARZ:                                                 2.0E-17
  HFX_INFO| EPS_SCHWARZ_FORCES                                           1.0E-06
  HFX_INFO| EPS_STORAGE_SCALING:                                         1.0E+00
  HFX_INFO| NBINS:                                                            64
  HFX_INFO| BLOCK_SIZE:                                                        1
  HFX_INFO| FRACTION:                                               1.0000000000
  HFX_INFO| Interaction Potential:                                       COULOMB
  HFX_INFO| Number of periodic shells considered:                           NONE
  HFX_INFO| Number of periodic cells considered:                            NONE


 Number of electrons:                                                         10
 Number of occupied orbitals:                                                  5
 Number of molecular orbitals:                                                 5

 Number of orbital functions:                                                 57
 Number of independent orbital functions:                                     57

 Extrapolation method: initial_guess


 SCF WAVEFUNCTION OPTIMIZATION

  Step     Update method      Time    Convergence         Total energy    Change
  ------------------------------------------------------------------------------
     1 P_Mix/Diag. 0.40E+00    1.5     3.2412E-09      -128.8653917798 -1.29E+02

  *** SCF run converged in     1 steps ***


  Electronic density on regular grids:         -6.8549395826        3.1450604174
  Core density on regular grids:               10.0000000000        0.0000000000
  Hard and soft densities (Lebedev):           -9.9999999968       -6.8549395832
  Total Rho_soft + Rho1_hard - Rho1_soft       -9.9999999961
  Total charge density (r-space):               0.0000000039
  Total Rho_soft + Rho0_soft (g-space):        -0.0000000618

  Overlap energy of the core charge distribution:               0.00000000000000
  Self energy of the core charge distribution:               -148.47094303888323
  Core Hamiltonian energy:                                      0.49299354962223
  Hartree energy:                                              13.56891431836475
  Exchange-correlation energy:                                 -4.49936397325261

  GAPW| Exc from hard and soft atomic rho1:                    -7.87423692292524
  GAPW| local Eh = 1 center integrals:                         17.91724428722674

  Total energy:                                              -128.86539177984736

 !-----------------------------------------------------------------------------!
                     Mulliken Population Analysis

 #  Atom  Element  Kind  Atomic population                           Net charge
       1     Ne       1         10.000000                             -0.000000
 # Total charge                             10.000000                 -0.000000

 !-----------------------------------------------------------------------------!

 !-----------------------------------------------------------------------------!
                           Hirshfeld Charges

  #Atom  Element  Kind  Ref Charge     Population                    Net charge
      1       Ne     1      10.000          9.999                         0.001

  Total Charge                                                            0.001
 !-----------------------------------------------------------------------------!


 RI-RPA section
 --------------

  Used number of processes per group:                                          1
  Maximum allowed memory usage per MPI processes:                     200.00 MiB

  HFX_MEM_INFO| Est. max. program size before HFX [MiB]:                     388
  HFX_MEM_INFO| Number of cart. primitive ERI's calculated:             81450625
  HFX_MEM_INFO| Number of sph. ERI's calculated:                        10556001
  HFX_MEM_INFO| Number of sph. ERI's stored in-core:                    10556001
  HFX_MEM_INFO| Number of sph. ERI's stored on disk:                           0
  HFX_MEM_INFO| Number of sph. ERI's calculated on the fly:                    0
  HFX_MEM_INFO| Total memory consumption ERI's RAM [MiB]:                     59
  HFX_MEM_INFO| Whereof max-vals [MiB]:                                        1
  HFX_MEM_INFO| Total compression factor ERI's RAM:                         1.37
  HFX_MEM_INFO| Total memory consumption ERI's disk [MiB]:                     0
  HFX_MEM_INFO| Total compression factor ERI's disk:                        0.00
  HFX_MEM_INFO| Size of density/Fock matrix [MiB]:                             0
  HFX_MEM_INFO| Size of buffers [MiB]:                                         0
  HFX_MEM_INFO| Est. max. program size after HFX  [MiB]:                     440

  GPW_INFO| Density cutoff [a.u.]:                                         150.0
  GPW_INFO| Relative density cutoff [a.u.]:                                 25.0
  RI_INFO| Cholesky decomposition group size:                                 24
  RI_INFO| Number of groups for auxiliary basis functions                     24
  RI_INFO| Occupied  basis set size:                                           5
  RI_INFO| Virtual   basis set size:                                          52
  RI_INFO| Auxiliary basis set size:                                         193
  RI_INFO| Total memory for (ia|K) integrals:                           0.38 MiB
  RI_INFO| Group size for frequency integration:                              24
  INTEG_INFO| MINIMAX quadrature
  INTEG_INFO| Number of integration points:                                   14
  INTEG_INFO| Number of integration points per RPA group:                     14
  MATRIX_INFO| Number row processes:                                           4
  MATRIX_INFO| Number column processes:                                        6
  MATRIX_INFO| Row block size:                                                32
  MATRIX_INFO| Column block size:                                             16
 SIZE(fm_matrix_L_RI_metric, 1) =           1
 SIZE(fm_matrix_L_RI_metric, 2) =           1
 SIZE(fm_matrix_L_RI_metric, 1) =           1
 SIZE(fm_matrix_L_RI_metric, 2) =           1
 SIZE(fm_matrix_L_RI_metric, 1) =           1
 SIZE(fm_matrix_L_RI_metric, 2) =           1
 SIZE(fm_matrix_L_RI_metric, 1) =           1
 SIZE(fm_matrix_L_RI_metric, 2) =           1
 SIZE(fm_matrix_L_RI_metric, 1) =           1
 SIZE(fm_matrix_L_RI_metric, 2) =           1
 SIZE(fm_matrix_L_RI_metric, 1) =           1
 SIZE(fm_matrix_L_RI_metric, 2) =           1
 SIZE(fm_matrix_L_RI_metric, 1) =           1
 SIZE(fm_matrix_L_RI_metric, 2) =           1
 SIZE(fm_matrix_L_RI_metric, 1) =           1
 SIZE(fm_matrix_L_RI_metric, 2) =           1
 SIZE(fm_matrix_L_RI_metric, 1) =           1
 SIZE(fm_matrix_L_RI_metric, 2) =           1
 SIZE(fm_matrix_L_RI_metric, 1) =           1
 SIZE(fm_matrix_L_RI_metric, 2) =           1
 SIZE(fm_matrix_L_RI_metric, 1) =           1
 SIZE(fm_matrix_L_RI_metric, 2) =           1
 SIZE(fm_matrix_L_RI_metric, 1) =           1
 SIZE(fm_matrix_L_RI_metric, 2) =           1
 SIZE(fm_matrix_L_RI_metric, 1) =           1
 SIZE(fm_matrix_L_RI_metric, 2) =           1
 SIZE(fm_matrix_L_RI_metric, 1) =           1
 SIZE(fm_matrix_L_RI_metric, 2) =           1
 SIZE(fm_matrix_L_RI_metric, 1) =           1
 SIZE(fm_matrix_L_RI_metric, 2) =           1
 SIZE(fm_matrix_L_RI_metric, 1) =           1
 SIZE(fm_matrix_L_RI_metric, 2) =           1
 SIZE(fm_matrix_L_RI_metric, 1) =           1
 SIZE(fm_matrix_L_RI_metric, 2) =           1
 SIZE(fm_matrix_L_RI_metric, 1) =           1
 SIZE(fm_matrix_L_RI_metric, 2) =           1
 SIZE(fm_matrix_L_RI_metric, 1) =           1
 SIZE(fm_matrix_L_RI_metric, 2) =           1
 SIZE(fm_matrix_L_RI_metric, 1) =           1
 SIZE(fm_matrix_L_RI_metric, 2) =           1
 SIZE(fm_matrix_L_RI_metric, 1) =           1
 SIZE(fm_matrix_L_RI_metric, 2) =           1
 SIZE(fm_matrix_L_RI_metric, 1) =           1
 SIZE(fm_matrix_L_RI_metric, 2) =           1
 SIZE(fm_matrix_L_RI_metric, 1) =           1
 SIZE(fm_matrix_L_RI_metric, 2) =           1
 SIZE(fm_matrix_L_RI_metric, 1) =           1
 SIZE(fm_matrix_L_RI_metric, 2) =           1
  INTEG_INFO| Range for the minimax approximation:                      469.4679
  INTEG_INFO| Minimax parameters:                    Weights           Abscissas
                                                1.7871604316        0.2195841709
                                                2.1723622067        0.7057975105
                                                3.0535043427        1.3467176558
                                                4.6825469963        2.2942840700
                                                7.5337481061        3.7888039382
                                               12.4707771109        6.2330908263
                                               21.0699829110       10.3258366897
                                               36.2498549648       17.3096455487
                                               63.5361091303       29.4459183010
                                              113.7642939584       50.9598240119
                                              209.6823072928       90.0592256485
                                              407.4985497723      164.0126237000
                                              911.1806943967      317.5014942334
                                             3366.8875527764      752.7186997722
  INTEG_INFO| Range for the minimax approximation:                      469.4679
  INTEG_INFO| Gap:                                                        0.7832
  INTEG_INFO| Minimax parameters of the time grid:   Weights           Abscissas
                                                0.0014963450        0.0005775976
                                                0.0037874471        0.0031727598
                                                0.0069919117        0.0084516362
                                                0.0121518060        0.0178011728
                                                0.0209572924        0.0339612216
                                                0.0359695657        0.0617698643
                                                0.0611245956        0.1092569956
                                                0.1025899521        0.1894176346
                                                0.1700572031        0.3230438547
                                                0.2788386313        0.5432025764
                                                0.4538618681        0.9026072912
                                                0.7395604603        1.4873276045
                                                1.2348099677        2.4497051911
                                                2.3047808745        4.1335660695
  INTEG_INFO| Maximum deviation of the imag. time fit:                  9.56E-05
 e_fermi = (a.u. / eV)  -9.7689485295371969E-002  -2.6582285843723663     
  MEMORY_INFO| Memory cut:                                                     1
  MEMORY_INFO| Im. time group size for RI functions:                           1
  MEMORY_INFO| Im. time group size for local P matrix:                         1
  SPARSITY_INFO| Eps pgf orb for imaginary time:                        1.00E-30
  SPARSITY_INFO| Eps filter for imaginary time:                         1.00E-30
  SPARSITY_INFO| Second eps filter for imaginary time:                  1.00E-30
  RPA_IM_TIME_INFO| Number of periodic images T for Chi_PQ^T(it):              1
  RPA_IM_TIME_INFO| Number of periodic images T for Chi_PQ^T(it):              1
  RPA_IM_TIME_INFO| Number of periodic images T for Chi_PQ^T(it):              1
  RPA_IM_TIME_INFO| Number of periodic images T for Chi_PQ^T(it):              1
  RPA_IM_TIME_INFO| Number of periodic images T for Chi_PQ^T(it):              1
  RPA_IM_TIME_INFO| Number of periodic images T for Chi_PQ^T(it):              1
  RPA_IM_TIME_INFO| Number of periodic images T for Chi_PQ^T(it):              1
  RPA_IM_TIME_INFO| Number of periodic images T for Chi_PQ^T(it):              1
  RPA_IM_TIME_INFO| Number of periodic images T for Chi_PQ^T(it):              1
  RPA_IM_TIME_INFO| Number of periodic images T for Chi_PQ^T(it):              1
  RPA_IM_TIME_INFO| Number of periodic images T for Chi_PQ^T(it):              1
  RPA_IM_TIME_INFO| Number of periodic images T for Chi_PQ^T(it):              1
  RPA_IM_TIME_INFO| Number of periodic images T for Chi_PQ^T(it):              1
  RPA_IM_TIME_INFO| Number of periodic images T for Chi_PQ^T(it):              1
 after Cholesky dec. mat Q_11           1  0.17198141814825996        1.1288931300769700     
 after Cholesky dec. mat Q_11           2  0.55279055980247949        1.1149390969025190     
 after Cholesky dec. mat Q_11           3   1.0547682526560986        1.0964358939918526     
 after Cholesky dec. mat Q_11           4   1.7969156260407984        1.0787483721444935     
 after Cholesky dec. mat Q_11           5   2.9674446549948237        1.0632153818245265     
 after Cholesky dec. mat Q_11           6   4.8818446027711291        1.0504546622794282     
 after Cholesky dec. mat Q_11           7   8.0873408582886466        1.0404234790549922     
 after Cholesky dec. mat Q_11           8   13.557158407081772        1.0330263292584154     
 after Cholesky dec. mat Q_11           9   23.062458311213764        1.0270524697311565     
 after Cholesky dec. mat Q_11          10   39.912452544651842        1.0208081984353861     
 after Cholesky dec. mat Q_11          11   70.535655089061265        1.0140873020967967     
 after Cholesky dec. mat Q_11          12   128.45699896099433        1.0081810454160376     
 after Cholesky dec. mat Q_11          13   248.67164608899114        1.0040942676155689     
 after Cholesky dec. mat Q_11          14   589.53989670590840        1.0013037818380734     
 iquad            tau               W_11
           1   7.3747095372348284E-004  -6.3338620084452742E-004
           2   4.0509482423662976E-003  -3.9947340866513641E-004
           3   1.0790965375916251E-002  -2.3098247645858761E-004
           4   2.2728361115443459E-002  -1.3182280062239669E-004
           5   4.3361351247121968E-002  -7.6038775969243457E-005
           6   7.8867150822419060E-002  -5.2320441528347128E-005
           7  0.13949824956649640       -3.9605025929983093E-005
           8  0.24184655935799537       -2.8893122471266902E-005
           9  0.41245919346038001       -1.9536091722638003E-005
          10  0.69355566819188219       -1.1882130256262989E-005
          11   1.1524400475696828       -6.2160758241392963E-006
          12   1.8990051510527086       -2.6020895924392060E-006
          13   3.1277593197296785       -7.4868641256039220E-007
[...]
         872  0.97346142716965245      ( -3.3392207331631651E-003, -8.1063598613328493E-003)
         873  0.98127800108974561      ( -3.3498171728487372E-003, -8.1503606066158987E-003)
         874  0.98921599460618381      ( -3.3605715172499340E-003, -8.1947153578072213E-003)
         875  0.99727829908815668      ( -3.3714865606508581E-003, -8.2394269071476879E-003)
 
 n_level_gw =           8
 AFTER evaluate_pade_function/get_z_and_m_value_pade
 energy_val =  0.39160704850998346     
 nparam_pade =           8
 omega_points_pade = (  0.0000000000000000     ,  9.9999999999999998E-013) (  0.0000000000000000     ,  3.9782473475931619E-002) (  0.0000000000000000     ,  8.2842712474619024E-002) (  0.0000000000000000     , 0.13363572758385980     ) (  0.0000000000000000     , 0.20000000000000004     ) (  0.0000000000000000     , 0.29932115253309782     ) (  0.0000000000000000     , 0.48284271247461907     ) (  0.0000000000000000     , 0.99727829908815668     )
 coeff_pade = ( -2.4181871295724396E-003, -1.0212172064270372E-014) ( -4.0982316019906140     , 0.71005479062636168     ) (  4.2228628776748316     ,-0.76484162425114433     ) (  6.1154194760519219E-002,660E-002, -1.7820194286474782E-002)
         853  0.84474233476705052      ( -3.4030774475723599E-002, -1.7921685136555735E-002)
         854  0.85070054895377256      ( -3.4027109158645943E-002, -1.8024152004884927E-002)
         855  0.85673891700890537      ( -3.4023334545533315E-002, -1.8127607716243190E-002)
         856  0.86285909771673230      ( -3.4019447113543315E-002, -1.8232065283031795E-002)
         857  0.86906279593578573      ( -3.4015443215408774E-002, -1.8337537907442043E-002)
         858  0.87535176420983818      ( -3.4011319074493999E-002, -1.8444038983577118E-002)
         859  0.88172780444696319      ( -3.4007070779628917E-002, -1.8551582099527064E-002)
         860  0.88819276967004490      ( -3.4002694279697057E-002, -1.8660181039380469E-002)
         861  0.89474856584231099      ( -3.3998185377981840E-002, -1.8769849785168779E-002)
         862  0.90139715377166429      ( -3.3993539726239572E-002, -1.8880602518731655E-002)
         863  0.90814055109781178      ( -3.3988752818498939E-002, -1.8992453623493250E-002)
         864  0.91498083436642097      ( -3.3983819984565226E-002, -1.9105417686136692E-002)
         865  0.92192014119478394      ( -3.3978736383211285E-002, -1.9219509498165203E-002)
         866  0.92896067253373171      ( -3.3973496995045538E-002, -1.9334744057334412E-002)
         867  0.93610469503082927      ( -3.3968096615031210E-002, -1.9451136568942762E-002)
         868  0.94335454350018144      ( -3.3962529844643853E-002, -1.9568702446961926E-002)
         869  0.95071262350450036      ( -3.3956791083640178E-002, -1.9687457314988058E-002)
         870  0.95818141405543900      ( -3.3950874521422827E-002, -1.9807417006998160E-002)
         871  0.96576347043855215      ( -3.3944774127976765E-002, -1.9928597567885981E-002)
         872  0.97346142716965245      ( -3.3938483644347740E-002, -2.0051015253757281E-002)
         873  0.98127800108974561      ( -3.3931996572643237E-002, -2.0174686531955664E-002)
         874  0.98921599460618381      ( -3.3925306165527316E-002, -2.0299628080797539E-002)
         875  0.99727829908815668      ( -3.3918405415175171E-002, -2.0425856788978916E-002)
 
 n_level_gw =          10
 AFTER evaluate_pade_function/get_z_and_m_value_pade
 energy_val =   1.6409827301255173     
 nparam_pade =           8
 omega_points_pade = (  0.0000000000000000     ,  9.9999999999999998E-013) (  0.0000000000000000     ,  3.9782473475931619E-002) (  0.0000000000000000     ,  8.2842712474619024E-002) (  0.0000000000000000     , 0.13363572758385980     ) (  0.0000000000000000     , 0.20000000000000004     ) (  0.0000000000000000     , 0.29932115253309782     ) (  0.0000000000000000     , 0.48284271247461907     ) (  0.0000000000000000     , 0.99727829908815668     )
 coeff_pade = ( -3.4165197438626012E-002, -2.3727473805526028E-014) (-0.69374421473781323     ,  1.9125148208766887E-002) ( 0.69186280321219451     , -4.3638891673205386E-002) ( 0.28220044837198743     ,  1.6834797438815986E-002) (-0.26694255503094222     ,-0.25063026715262987     ) ( -1.1437448005476252     , 0.14041026935087808     ) ( -7.7196298790821280E-002, -1.0068654344233010     ) ( -2.3686018458454999E-002, 0.55459390527623209     )
 sigma_c_pade = ( -2.4871781654383023     ,-0.13475188131086627     )
 z_value(n_level_gw) =  0.93945801111096572     
 m_value(n_level_gw) =  -6.4443528260980834E-002
 level_energ_GW =   1.7514134684343012     
 
 
 n_level_gw =          10
 AFTER get_sigma_c_newton_pade
 vec_gw_energ(n_level_gw) =  -2.8995775062324478     
 Eigenval_scf(n_level_gw_ref) =   41.994552485073079     
 nparam_pade =           8
 level_energ_GW =   1.7514134684343012     
 
  1.8901335979571803E-003) (-0.12437900036063182     ,-0.17907995110592936     ) (-0.83069657827851440     , 0.79593402413013148     ) ( 0.34161091063668464     , -2.0028186720554535     ) (-0.21976118755160137     ,  8.1508149182681094E-002)
 sigma_c_pade = (-0.17424129519753973     , -5.2159053821754112E-004)
 z_value(n_level_gw) =  0.98946655634873448     
 m_value(n_level_gw) =  -1.0645578249895945E-002
 level_energ_GW =  0.42792557752597160     
 
 
 n_level_gw =           8
 AFTER get_sigma_c_newton_pade
 vec_gw_energ(n_level_gw) = -0.21388386187951081     
 Eigenval_scf(n_level_gw_ref) =   7.9977908126327923     
 nparam_pade =           8
 level_energ_GW =  0.42792557752597160     
 
699E-002, -1.9687457314988131E-002)
         870  0.95818141405543900      ( -3.3950874521423355E-002, -1.9807417006998226E-002)
         871  0.96576347043855215      ( -3.3944774127977272E-002, -1.9928597567886053E-002)
         872  0.97346142716965245      ( -3.3938483644348268E-002, -2.0051015253757343E-002)
         873  0.98127800108974561      ( -3.3931996572643744E-002, -2.0174686531955734E-002)
         874  0.98921599460618381      ( -3.3925306165527823E-002, -2.0299628080797615E-002)
         875  0.99727829908815668      ( -3.3918405415175670E-002, -2.0425856788978989E-002)
 
 n_level_gw =          11
 AFTER evaluate_pade_function/get_z_and_m_value_pade
 energy_val =   1.6409827301255271     
 nparam_pade =           8
 omega_points_pade = (  0.0000000000000000     ,  9.9999999999999998E-013) (  0.0000000000000000     ,  3.9782473475931619E-002) (  0.0000000000000000     ,  8.2842712474619024E-002) (  0.0000000000000000     , 0.13363572758385980     ) (  0.0000000000000000     , 0.20000000000000004     ) (  0.0000000000000000     , 0.29932115253309782     ) (  0.0000000000000000     , 0.48284271247461907     ) (  0.0000000000000000     , 0.99727829908815668     )
 coeff_pade = ( -3.4165197438626629E-002, -2.3727473805526624E-014) (-0.69374421473781755     ,  1.9125148208767127E-002) ( 0.69186280321236160     , -4.3638891673261335E-002) ( 0.28220044837264102     ,  1.6834797432873135E-002) (-0.26694255518835697     ,-0.25063026714581171     ) ( -1.1437448016522125     , 0.14041026814496158     ) ( -7.7196295806240198E-002, -1.0068654350635227     ) ( -2.3686016414391053E-002, 0.55459390494489158     )
 sigma_c_pade = ( -2.4871781646542765     ,-0.13475188161729226     )
 z_value(n_level_gw) =  0.93945801118475936     
 m_value(n_level_gw) =  -6.4443528177369647E-002
 level_energ_GW =   1.7514134684777254     
 
 
 n_level_gw =          11
 AFTER get_sigma_c_newton_pade
 vec_gw_energ(n_level_gw) =  -2.8995775049196708     
 Eigenval_scf(n_level_gw_ref) =   41.994552485073349     
 nparam_pade =           8
 level_energ_GW =   1.7514134684777254     
 
( -3.4165197438627296E-002, -2.3727473805509853E-014) (-0.69374421473731129     ,  1.9125148208836214E-002) ( 0.69186280321526783     , -4.3638891673184362E-002) ( 0.28220044836859043     ,  1.6834797432617815E-002) (-0.26694255521214405     ,-0.25063026715415160     ) ( -1.1437448022161820     , 0.14041026756537567     ) ( -7.7196293680616729E-002, -1.0068654362233718     ) ( -2.3686014573333816E-002, 0.55459390419807930     )
 sigma_c_pade = ( -2.4871781640166613     ,-0.13475188202876737     )
 z_value(n_level_gw) =  0.93945801124930128     
 m_value(n_level_gw) =  -6.4443528104241088E-002
 level_energ_GW =   1.7514134685054914     
 
 
 n_level_gw =          12
 AFTER get_sigma_c_newton_pade
 vec_gw_energ(n_level_gw) =  -2.8995775037404776     
 Eigenval_scf(n_level_gw_ref) =   41.994552485665842     
 nparam_pade =           8
 level_energ_GW =   1.7514134685054914     
 
 COUNTER                                    TOTAL       BLAS       SMM       ACC
 flops    57 x     5 x    57                32490     100.0%      0.0%      0.0%
 flops    57 x    57 x     5                64980     100.0%      0.0%      0.0%
 flops    57 x    57 x    57               740772     100.0%      0.0%      0.0%
 flops    57 x   513 x    57             96670746     100.0%      0.0%      0.0%
 flops   193 x   193 x   193            201293596     100.0%      0.0%      0.0%
 flops   193 x   193 x   135            422403660     100.0%      0.0%      0.0%
 flops   193 x   193 x   150            469337400     100.0%      0.0%      0.0%
 flops   193 x    57 x    57            526727880     100.0%      0.0%      0.0%
 flops   193 x    57 x   193            891741060     100.0%      0.0%      0.0%
 flops   193 x   193 x   126           1182730248     100.0%      0.0%      0.0%
 flops   193 x   193 x   140           1314144720     100.0%      0.0%      0.0%
 flops    57 x   456 x    57           1976379696     100.0%      0.0%      0.0%
 flops inhomo. stacks                           0       0.0%      0.0%      0.0%
 flops total                         7.082267E+09     100.0%      0.0%      0.0%
 flops max/rank                      1.852546E+09     100.0%      0.0%      0.0%
 matmuls inhomo. stacks                         0       0.0%      0.0%      0.0%
 matmuls total                               1681     100.0%      0.0%      0.0%
 number of processed stacks                  1681     100.0%      0.0%      0.0%
 average stack size                                     1.0       0.0       0.0
 marketing flops                     7.081711E+09
 -------------------------------------------------------------------------------
 # multiplications                            692
 max memory usage/rank             466.186240E+06
 # max total images/rank                        3
 # max 3D layers                                1
 # MPI messages exchanged                  295944
 MPI messages size (bytes):
  total size                       619.867648E+06
  min size                           0.000000E+00
  max size                         297.992000E+03
  average size                       2.094544E+03
 MPI breakdown and total messages size (bytes):
             size <=      128              290752                        0
       128 < size <=     8192                  19                    43320
      8192 < size <=    32768                1281                 33295752
     32768 < size <=   131072                2730                240261840
    131072 < size <=  4194304                1162                346266704
   4194304 < size <= 16777216                   0                        0
  16777216 < size                               0                        0
 -------------------------------------------------------------------------------

 *** WARNING in dbcsr_mm.F:278 :: Using a non-square number of MPI ranks ***
 *** might lead to poor performance. Used ranks: 24 Suggested: 25 49     ***

 -------------------------------------------------------------------------------
 -                                                                             -
 -                      DBCSR MESSAGE PASSING PERFORMANCE                      -
 -                                                                             -
 -------------------------------------------------------------------------------

 ROUTINE             CALLS      AVE VOLUME [Bytes]
 MP_Group               26
 MP_Bcast               13                     12.
 MP_Allreduce         3908                      8.
 MP_Alltoall          2176                  15828.
 MP_Wait             37376
 MP_ISend            27430                   5067.
 MP_IRecv            27430                     56.
 MP_Memory           52476
 -------------------------------------------------------------------------------


 MEMORY| Estimated peak process memory [MiB]                                 445

 -------------------------------------------------------------------------------
 ----                             MULTIGRID INFO                            ----
 -------------------------------------------------------------------------------
 count for grid        1:          85043          cutoff [a.u.]          200.00
 count for grid        2:           6389          cutoff [a.u.]           66.67
 count for grid        3:           1641          cutoff [a.u.]           22.22
 count for grid        4:             96          cutoff [a.u.]            7.41
 total gridlevel count  :          93169

 -------------------------------------------------------------------------------
 -                                                                             -
 -                         MESSAGE PASSING PERFORMANCE                         -
 -                                                                             -
 -------------------------------------------------------------------------------

 ROUTINE             CALLS      AVE VOLUME [Bytes]
 MP_Group                5
 MP_Bcast              109                2490226.
 MP_Allreduce          335                  15341.
 MP_Sync                72
 MP_Alltoall           123                3770409.
 MP_ISendRecv          276                  54508.
 MP_Wait               940
 MP_comm_split          10
 MP_ISend             3188                  53652.
 MP_IRecv             2546                 100207.
 MP_Recv                 4                    456.
 -------------------------------------------------------------------------------


 -------------------------------------------------------------------------------
 -                                                                             -
 -                           R E F E R E N C E S                               -
 -                                                                             -
 -------------------------------------------------------------------------------
 
 CP2K version 7.0 (Development Version), the CP2K developers group (2018).
 CP2K is freely available from https://www.cp2k.org/ .

 Schuett, Ole; Messmer, Peter; Hutter, Juerg; VandeVondele, Joost. 
 Electronic Structure Calculations on Graphics Processing Units, John Wiley & Sons, Ltd, 173-190 (2016). 
 GPU-Accelerated Sparse Matrix-Matrix Multiplication for Linear Scaling Density Functional Theory.
 https://dx.doi.org/10.1002/9781118670712.ch8


 Del Ben, M; Schuett, O; Wentz, T; Messmer, P; Hutter, J;
 VandeVondele, J. 
 COMPUTER PHYSICS COMMUNICATIONS, 187, 120-129 (2015). 
 Enabling simulation at the fifth rung of DFT: Large scale RPA
 calculations with excellent time to solution.
 https://dx.doi.org/10.1016/j.cpc.2014.10.021


 Borstnik, U; VandeVondele, J; Weber, V; Hutter, J. 
 PARALLEL COMPUTING, 40 (5-6), 47-58 (2014). 
 Sparse matrix multiplication: The distributed block-compressed sparse
 row library.
 https://dx.doi.org/10.1016/j.parco.2014.03.012


 Hutter, J; Iannuzzi, M; Schiffmann, F; VandeVondele, J. 
 WILEY INTERDISCIPLINARY REVIEWS-COMPUTATIONAL MOLECULAR SCIENCE, 4 (1), 15-25 (2014). 
 CP2K: atomistic simulations of condensed matter systems.
 https://dx.doi.org/10.1002/wcms.1159


 Del Ben, M; Hutter, J; VandeVondele, J. 
 JOURNAL OF CHEMICAL THEORY AND COMPUTATION, 9 (6), 2654-2671 (2013). 
 Electron Correlation in the Condensed Phase from a Resolution of
 Identity Approach Based on the Gaussian and Plane Waves Scheme.
 https://dx.doi.org/10.1021/ct4002202


 Del Ben, M; Hutter, J; VandeVondele, J. 
 JOURNAL OF CHEMICAL THEORY AND COMPUTATION, 8 (11), 4177-4188 (2012). 
 Second-Order Moller-Plesset Perturbation Theory in the Condensed Phase:
 An Efficient and Massively Parallel Gaussian and Plane Waves Approach.
 https://dx.doi.org/10.1021/ct300531w


 Guidon, M; Hutter, J; VandeVondele, J. 
 JOURNAL OF CHEMICAL THEORY AND COMPUTATION, 5 (11), 3010-3021 (2009). 
 Robust Periodic Hartree-Fock Exchange for Large-Scale Simulations Using
 Gaussian Basis Sets.
 https://dx.doi.org/10.1021/ct900494g


 Guidon, M; Schiffmann, F; Hutter, J; VandeVondele, J. 
 JOURNAL OF CHEMICAL PHYSICS, 128 (21), 214104 (2008). 
 Ab initio molecular dynamics using hybrid density functionals.
 https://dx.doi.org/10.1063/1.2931945


 Frigo, M; Johnson, SG. 
 PROCEEDINGS OF THE IEEE, 93 (2), 216-231 (2005). 
 The design and implementation of FFTW3.
 https://dx.doi.org/10.1109/JPROC.2004.840301


 Lippert, G; Hutter, J; Parrinello, M. 
 THEORETICAL CHEMISTRY ACCOUNTS, 103 (2), 124-140 (1999). 
 The Gaussian and augmented-plane-wave density functional method for ab
 initio molecular dynamics simulations.
 https://dx.doi.org/10.1007/s002140050523


 Krack, M; Parrinello, M. 
 PHYSICAL CHEMISTRY CHEMICAL PHYSICS, 2 (10), 2105-2112 (2000). 
 All-electron ab-initio molecular dynamics.
 https://dx.doi.org/10.1039/b001167n


 Martyna, GJ; Tuckerman, ME. 
 JOURNAL OF CHEMICAL PHYSICS, 110 (6), 2810-2821 (1999). 
 A reciprocal space based method for treating long range interactions in
 ab initio and force-field-based calculations in clusters.
 https://dx.doi.org/10.1063/1.477923


 Perdew, JP; Burke, K; Ernzerhof, M. 
 PHYSICAL REVIEW LETTERS, 77 (18), 3865-3868 (1996). 
 Generalized gradient approximation made simple.
 https://dx.doi.org/10.1103/PhysRevLett.77.3865


 -------------------------------------------------------------------------------
 -                                                                             -
 -                                T I M I N G                                  -
 -                                                                             -
 -------------------------------------------------------------------------------
 SUBROUTINE                       CALLS  ASD         SELF TIME        TOTAL TIME
                                MAXIMUM       AVERAGE  MAXIMUM  AVERAGE  MAXIMUM
 CP2K                                 1  1.0    0.017    0.025  168.961  168.962
 qs_energies                          1  2.0    0.000    0.000  168.143  168.144
 mp2_main                             1  3.0    0.000    0.000  165.866  165.867
 mp2_gpw_main                         1  4.0    0.000    0.000  160.029  160.030
 rpa_ri_compute_en                    1  5.0    0.000    0.000  159.771  159.771
 rpa_num_int                          1  6.0    0.001    0.003  159.770  159.770
 get_l_sq_wghts_sin_tf_t_to_w         2  7.0   68.948  106.662  107.416  107.419
 mp_sum_dm                           14  7.8   47.916   81.020   47.916   81.020
 get_l_sq_wghts_cos_tf_t_to_w         2  7.0   40.224   49.238   49.243   49.244
 compute_vec_Sigma_x_minus_vxc_       1  4.0    0.000    0.000    5.831    5.831
 integrate_four_center                1  5.0    0.002    0.004    5.270    5.271
 -------------------------------------------------------------------------------

 The number of warnings for this run is : 1
 
 -------------------------------------------------------------------------------
  **** **** ******  **  PROGRAM ENDED AT                 2019-06-07 02:58:41.469
 ***** ** ***  *** **   PROGRAM RAN ON                                    tcopt4
 **    ****   ******    PROGRAM RAN BY                                   wilhelm
 ***** **    ** ** **   PROGRAM PROCESS ID                                 50854
  **** **  *******  **  PROGRAM STOPPED IN /data/wilhelm/2_job_test/11_GW100/3_c
                                           alcs/02_Ne
