 DBCSR| CPU Multiplication driver                                           BLAS
 DBCSR| Multrec recursion limit                                              512
 DBCSR| Multiplication stack size                                           1000
 DBCSR| Maximum elements for images                                    UNLIMITED
 DBCSR| Multiplicative factor virtual images                                   1
 DBCSR| Use multiplication densification                                       T
 DBCSR| Multiplication size stacks                                             3
 DBCSR| Number of 3D layers                                               SINGLE
 DBCSR| Use MPI memory allocation                                              T
 DBCSR| Use RMA algorithm                                                      F
 DBCSR| Use Communication thread                                               T
 DBCSR| Communication thread load                                             87


  **** **** ******  **  PROGRAM STARTED AT               2019-05-31 17:13:05.730
 ***** ** ***  *** **   PROGRAM STARTED ON                                tcopt4
 **    ****   ******    PROGRAM STARTED BY                               wilhelm
 ***** **    ** ** **   PROGRAM PROCESS ID                                 82290
  **** **  *******  **  PROGRAM STARTED IN /data/wilhelm/2_job_test/11_GW100/3_c
                                           alcs/51_SH2

 CP2K| version string:                    CP2K version 7.0 (Development Version)
 CP2K| source code revision number:                                  git:026fb12
 CP2K| cp2kflags: libint fftw3 libxc pexsi elpa=201705 parallel mpi3 scalapack q
 CP2K|            uip libderiv_max_am1=5 libint_max_am=6
 CP2K| is freely available from                            https://www.cp2k.org/
 CP2K| Program compiled at                         Sat May 11 13:15:02 CEST 2019
 CP2K| Program compiled on                                                tcopt4
 CP2K| Program compiled for                            local_valgrind_March_2019
 CP2K| Data directory path              /data/wilhelm/1_git_repository/cp2k/data
 CP2K| Input file name                                                    GW.inp

 GLOBAL| Force Environment number                                              1
 GLOBAL| Basis set file name                              BASIS_def2_QZVP_RI_ALL
 GLOBAL| Potential file name                                           POTENTIAL
 GLOBAL| MM Potential file name                                     MM_POTENTIAL
 GLOBAL| Coordinate file name                                         51_SH2.xyz
 GLOBAL| Method name                                                        CP2K
 GLOBAL| Project name                                                   ALL_ELEC
 GLOBAL| Preferred FFT library                                             FFTW3
 GLOBAL| Preferred diagonalization lib.                                       SL
 GLOBAL| Run type                                                         ENERGY
 GLOBAL| All-to-all communication in single precision                          F
 GLOBAL| FFTs using library dependent lengths                                  F
 GLOBAL| Global print level                                               MEDIUM
 GLOBAL| MPI I/O enabled                                                       T
 GLOBAL| Total number of message passing processes                            40
 GLOBAL| Number of threads for this process                                    1
 GLOBAL| This output is from process                                           0
 GLOBAL| CPU model name :  Intel(R) Xeon(R) CPU E5-2697 v3 @ 2.60GHz

 MEMORY| system memory details [Kb]
 MEMORY|                        rank 0           min           max       average
 MEMORY| MemTotal            396954008     396954008     396954008     396954008
 MEMORY| MemFree             375116724     375116724     375116724     375116724
 MEMORY| Buffers                336596        336596        336596        336596
 MEMORY| Cached               16109564      16109564      16109564      16109564
 MEMORY| Slab                   608320        608320        608320        608320
 MEMORY| SReclaimable           465240        465240        465240        465240
 MEMORY| MemLikelyFree       392028124     392028124     392028124     392028124


 *** Fundamental physical constants (SI units) ***

 *** Literature: B. J. Mohr and B. N. Taylor,
 ***             CODATA recommended values of the fundamental physical
 ***             constants: 2006, Web Version 5.1
 ***             http://physics.nist.gov/constants

 Speed of light in vacuum [m/s]                             2.99792458000000E+08
 Magnetic constant or permeability of vacuum [N/A**2]       1.25663706143592E-06
 Electric constant or permittivity of vacuum [F/m]          8.85418781762039E-12
 Planck constant (h) [J*s]                                  6.62606896000000E-34
 Planck constant (h-bar) [J*s]                              1.05457162825177E-34
 Elementary charge [C]                                      1.60217648700000E-19
 Electron mass [kg]                                         9.10938215000000E-31
 Electron g factor [ ]                                     -2.00231930436220E+00
 Proton mass [kg]                                           1.67262163700000E-27
 Fine-structure constant                                    7.29735253760000E-03
 Rydberg constant [1/m]                                     1.09737315685270E+07
 Avogadro constant [1/mol]                                  6.02214179000000E+23
 Boltzmann constant [J/K]                                   1.38065040000000E-23
 Atomic mass unit [kg]                                      1.66053878200000E-27
 Bohr radius [m]                                            5.29177208590000E-11

 *** Conversion factors ***

 [u] -> [a.u.]                                              1.82288848426455E+03
 [Angstrom] -> [Bohr] = [a.u.]                              1.88972613288564E+00
 [a.u.] = [Bohr] -> [Angstrom]                              5.29177208590000E-01
 [a.u.] -> [s]                                              2.41888432650478E-17
 [a.u.] -> [fs]                                             2.41888432650478E-02
 [a.u.] -> [J]                                              4.35974393937059E-18
 [a.u.] -> [N]                                              8.23872205491840E-08
 [a.u.] -> [K]                                              3.15774647902944E+05
 [a.u.] -> [kJ/mol]                                         2.62549961709828E+03
 [a.u.] -> [kcal/mol]                                       6.27509468713739E+02
 [a.u.] -> [Pa]                                             2.94210107994716E+13
 [a.u.] -> [bar]                                            2.94210107994716E+08
 [a.u.] -> [atm]                                            2.90362800883016E+08
 [a.u.] -> [eV]                                             2.72113838565563E+01
 [a.u.] -> [Hz]                                             6.57968392072181E+15
 [a.u.] -> [1/cm] (wave numbers)                            2.19474631370540E+05
 [a.u./Bohr**2] -> [1/cm]                                   5.14048714338585E+03
 

 CELL_TOP| Volume [angstrom^3]:                                         4096.000
 CELL_TOP| Vector a [angstrom    16.000     0.000     0.000    |a| =      16.000
 CELL_TOP| Vector b [angstrom     0.000    16.000     0.000    |b| =      16.000
 CELL_TOP| Vector c [angstrom     0.000     0.000    16.000    |c| =      16.000
 CELL_TOP| Angle (b,c), alpha [degree]:                                   90.000
 CELL_TOP| Angle (a,c), beta  [degree]:                                   90.000
 CELL_TOP| Angle (a,b), gamma [degree]:                                   90.000
 CELL_TOP| Numerically orthorhombic:                                         YES

 GENERATE|  Preliminary Number of Bonds generated:                             0
 GENERATE|  Achieved consistency in connectivity generation.

 CELL| Volume [angstrom^3]:                                             4096.000
 CELL| Vector a [angstrom]:      16.000     0.000     0.000    |a| =      16.000
 CELL| Vector b [angstrom]:       0.000    16.000     0.000    |b| =      16.000
 CELL| Vector c [angstrom]:       0.000     0.000    16.000    |c| =      16.000
 CELL| Angle (b,c), alpha [degree]:                                       90.000
 CELL| Angle (a,c), beta  [degree]:                                       90.000
 CELL| Angle (a,b), gamma [degree]:                                       90.000
 CELL| Numerically orthorhombic:                                             YES

 CELL_REF| Volume [angstrom^3]:                                         4096.000
 CELL_REF| Vector a [angstrom    16.000     0.000     0.000    |a| =      16.000
 CELL_REF| Vector b [angstrom     0.000    16.000     0.000    |b| =      16.000
 CELL_REF| Vector c [angstrom     0.000     0.000    16.000    |c| =      16.000
 CELL_REF| Angle (b,c), alpha [degree]:                                   90.000
 CELL_REF| Angle (a,c), beta  [degree]:                                   90.000
 CELL_REF| Angle (a,b), gamma [degree]:                                   90.000
 CELL_REF| Numerically orthorhombic:                                         YES

 *******************************************************************************
 *******************************************************************************
 **                                                                           **
 **     #####                         ##              ##                      **
 **    ##   ##            ##          ##              ##                      **
 **   ##     ##                       ##            ######                    **
 **   ##     ##  ##   ##  ##   #####  ##  ##   ####   ##    #####    #####    **
 **   ##     ##  ##   ##  ##  ##      ## ##   ##      ##   ##   ##  ##   ##   **
 **   ##  ## ##  ##   ##  ##  ##      ####     ###    ##   ######   ######    **
 **    ##  ###   ##   ##  ##  ##      ## ##      ##   ##   ##       ##        **
 **     #######   #####   ##   #####  ##  ##  ####    ##    #####   ##        **
 **           ##                                                    ##        **
 **                                                                           **
 **                                                ... make the atoms dance   **
 **                                                                           **
 **            Copyright (C) by CP2K developers group (2000 - 2019)           **
 **                                                                           **
 *******************************************************************************

 DFT| Spin restricted Kohn-Sham (RKS) calculation                            RKS
 DFT| Multiplicity                                                             1
 DFT| Number of spin states                                                    1
 DFT| Charge                                                                   0
 DFT| Self-interaction correction (SIC)                                       NO
 DFT| Cutoffs: density                                              1.000000E-10
 DFT|          gradient                                             1.000000E-10
 DFT|          tau                                                  1.000000E-10
 DFT|          cutoff_smoothing_range                               0.000000E+00
 DFT| XC density smoothing                                                  NONE
 DFT| XC derivatives                                                          PW
 FUNCTIONAL| ROUTINE=NEW
 FUNCTIONAL| PBE:
 FUNCTIONAL| J.P.Perdew, K.Burke, M.Ernzerhof, Phys. Rev. Letter, vol. 77, n 18,
 FUNCTIONAL|  pp. 3865-3868, (1996){spin unpolarized}                           

 QS| Method:                                                                GAPW
 QS| Density plane wave grid type                        NON-SPHERICAL FULLSPACE
 QS| Number of grid levels:                                                    4
 QS| Density cutoff [a.u.]:                                                200.0
 QS| Multi grid cutoff [a.u.]: 1) grid level                               200.0
 QS|                           2) grid level                                66.7
 QS|                           3) grid level                                22.2
 QS|                           4) grid level                                 7.4
 QS| Grid level progression factor:                                          3.0
 QS| Relative density cutoff [a.u.]:                                        25.0
 QS| Consistent realspace mapping and integration 
 QS| Interaction thresholds: eps_pgf_orb:                                1.0E-05
 QS|                         eps_filter_matrix:                          0.0E+00
 QS|                         eps_core_charge:                            1.0E-12
 QS|                         eps_rho_gspace:                             1.0E-10
 QS|                         eps_rho_rspace:                             1.0E-10
 QS|                         eps_gvg_rspace:                             1.0E-05
 QS|                         eps_ppl:                                    1.0E-02
 QS|                         eps_ppnl:                                   1.0E-07
 QS| GAPW|                   eps_fit:                                    1.0E-04
 QS| GAPW|                   eps_iso:                                    1.0E-12
 QS| GAPW|                   eps_svd:                                    1.0E-08
 QS| GAPW|                   eps_cpc:                                    1.0E-10
 QS| GAPW|   atom-r-grid: quadrature:                 GC_LOG                        
 QS| GAPW|      atom-s-grid:  max l :                                          8
 QS| GAPW|      max_l_rho0 :                                                   2


 ATOMIC KIND INFORMATION

  1. Atomic kind: S                                     Number of atoms:       1

     Orbital Basis Set                                                 def2-QZVP

       Number of orbital shell sets:                                          22
       Number of orbital shells:                                              22
       Number of primitive Cartesian functions:                               41
       Number of Cartesian basis functions:                                   86
       Number of spherical basis functions:                                   70
       Norm type:                                                              2

       Normalised Cartesian orbitals:

                        Set   Shell   Orbital            Exponent    Coefficient

                          1       1    1s          1273410.902300       0.389363
                                                    190697.830070       0.728682
                                                     43397.885330       1.262165
                                                     12291.809677       2.064193
                                                      4009.742082       3.219206
                                                      1447.353103       4.772602
                                                       564.301029       6.608127
                                                       233.745062       8.147842
                                                       101.564028       8.187602
                                                        45.805907       5.577149

                          2       1    1s              394.272815       1.484150
                                                       121.722496       5.529863
                                                        46.754126      10.204331

                          3       1    1s               20.923008       6.972334

                          4       1    1s                8.268557       3.475221

                          5       1    1s                3.862935       1.963804

                          6       1    1s                1.779468       1.098064

                          7       1    1s                0.610643       0.492323

                          8       1    1s                0.274123       0.270003

                          9       1    1s                0.113259       0.139144

                         10       1    1px            2189.893046       5.343872
                                                       518.945966       7.675084
                                                       168.195602      10.158500
                                                        63.745283      11.841424
                                                        26.597033      11.640306
                                                        11.774251       8.755784
                                                         5.353438       4.598607
                                                         2.470191       1.371690
                         10       1    1py            2189.893046       5.343872
                                                       518.945966       7.675084
                                                       168.195602      10.158500
                                                        63.745283      11.841424
                                                        26.597033      11.640306
                                                        11.774251       8.755784
                                                         5.353438       4.598607
                                                         2.470191       1.371690
                         10       1    1pz            2189.893046       5.343872
                                                       518.945966       7.675084
                                                       168.195602      10.158500
                                                        63.745283      11.841424
                                                        26.597033      11.640306
                                                        11.774251       8.755784
                                                         5.353438       4.598607
                                                         2.470191       1.371690

                         11       1    1px              82.120288     -21.843282
                                                         4.952353      10.606144
                         11       1    1py              82.120288     -21.843282
                                                         4.952353      10.606144
                         11       1    1pz              82.120288     -21.843282
                                                         4.952353      10.606144

                         12       1    1px               1.082826       1.574485
                         12       1    1py               1.082826       1.574485
                         12       1    1pz               1.082826       1.574485

                         13       1    1px               0.492713       0.588413
                         13       1    1py               0.492713       0.588413
                         13       1    1pz               0.492713       0.588413

                         14       1    1px               0.204835       0.196424
                         14       1    1py               0.204835       0.196424
                         14       1    1pz               0.204835       0.196424

                         15       1    1px               0.080744       0.061352
                         15       1    1py               0.080744       0.061352
                         15       1    1pz               0.080744       0.061352

                         16       1    1dx2              4.159000      19.936094
                         16       1    1dxy              4.159000      34.530327
                         16       1    1dxz              4.159000      34.530327
                         16       1    1dy2              4.159000      19.936094
                         16       1    1dyz              4.159000      34.530327
                         16       1    1dz2              4.159000      19.936094

                         17       1    1dx2              1.019000       1.701039
                         17       1    1dxy              1.019000       2.946286
                         17       1    1dxz              1.019000       2.946286
                         17       1    1dy2              1.019000       1.701039
                         17       1    1dyz              1.019000       2.946286
                         17       1    1dz2              1.019000       1.701039

                         18       1    1dx2              0.464000       0.429354
                         18       1    1dxy              0.464000       0.743664
                         18       1    1dxz              0.464000       0.743664
                         18       1    1dy2              0.464000       0.429354
                         18       1    1dyz              0.464000       0.743664
                         18       1    1dz2              0.464000       0.429354

                         19       1    1dx2              0.194000       0.093339
                         19       1    1dxy              0.194000       0.161668
                         19       1    1dxz              0.194000       0.161668
                         19       1    1dy2              0.194000       0.093339
                         19       1    1dyz              0.194000       0.161668
                         19       1    1dz2              0.194000       0.093339

                         20       1    1fx3              0.335000       0.125691
                         20       1    1fx2y             0.335000       0.281054
                         20       1    1fx2z             0.335000       0.281054
                         20       1    1fxy2             0.335000       0.281054
                         20       1    1fxyz             0.335000       0.486800
                         20       1    1fxz2             0.335000       0.281054
                         20       1    1fy3              0.335000       0.125691
                         20       1    1fy2z             0.335000       0.281054
                         20       1    1fyz2             0.335000       0.281054
                         20       1    1fz3              0.335000       0.125691

                         21       1    1fx3              0.869000       1.073369
                         21       1    1fx2y             0.869000       2.400125
                         21       1    1fx2z             0.869000       2.400125
                         21       1    1fxy2             0.869000       2.400125
                         21       1    1fxyz             0.869000       4.157139
                         21       1    1fxz2             0.869000       2.400125
                         21       1    1fy3              0.869000       1.073369
                         21       1    1fy2z             0.869000       2.400125
                         21       1    1fyz2             0.869000       2.400125
                         21       1    1fz3              0.869000       1.073369

                         22       1    1gx4              0.683000       0.390025
                         22       1    1gx3y             0.683000       1.031909
                         22       1    1gx3z             0.683000       1.031909
                         22       1    1gx2y2            0.683000       1.332189
                         22       1    1gx2yz            0.683000       2.307419
                         22       1    1gx2z2            0.683000       1.332189
                         22       1    1gxy3             0.683000       1.031909
                         22       1    1gxy2z            0.683000       2.307419
                         22       1    1gxyz2            0.683000       2.307419
                         22       1    1gxz3             0.683000       1.031909
                         22       1    1gy4              0.683000       0.390025
                         22       1    1gy3z             0.683000       1.031909
                         22       1    1gy2z2            0.683000       1.332189
                         22       1    1gyz3             0.683000       1.031909
                         22       1    1gz4              0.683000       0.390025

     RI Auxiliary Basis Set                                                RI-5Z

       Number of orbital shell sets:                                          48
       Number of orbital shells:                                              48
       Number of primitive Cartesian functions:                               48
       Number of Cartesian basis functions:                                  335
       Number of spherical basis functions:                                  230
       Norm type:                                                              2

       Normalised Cartesian orbitals:

                        Set   Shell   Orbital            Exponent    Coefficient

                          1       1    1s             1061.140000     132.507240

                          2       1    1s              244.799000      44.107996

                          3       1    1s               98.446100      22.274552

                          4       1    1s               28.010800       8.677692

                          5       1    1s               12.843200       4.835206

                          6       1    1s                6.042910       2.746912

                          7       1    1s                3.136310       1.679671

                          8       1    1s                1.545010       0.987662

                          9       1    1s                0.892243       0.654293

                         10       1    1s                0.571860       0.468681

                         11       1    1s                0.279888       0.274251

                         12       1    1s                0.157649       0.178311

                         13       1    1px             305.733000    1822.292070
                         13       1    1py             305.733000    1822.292070
                         13       1    1pz             305.733000    1822.292070

                         14       1    1px              91.908000     405.631555
                         14       1    1py              91.908000     405.631555
                         14       1    1pz              91.908000     405.631555

                         15       1    1px              32.378100     110.091626
                         15       1    1py              32.378100     110.091626
                         15       1    1pz              32.378100     110.091626

                         16       1    1px              15.525000      43.926803
                         16       1    1py              15.525000      43.926803
                         16       1    1pz              15.525000      43.926803

                         17       1    1px               6.862790      15.833101
                         17       1    1py               6.862790      15.833101
                         17       1    1pz               6.862790      15.833101

                         18       1    1px               3.362740       6.490927
                         18       1    1py               3.362740       6.490927
                         18       1    1pz               3.362740       6.490927

                         19       1    1px               1.559320       2.483757
                         19       1    1py               1.559320       2.483757
                         19       1    1pz               1.559320       2.483757

                         20       1    1px               0.942964       1.324521
                         20       1    1py               0.942964       1.324521
                         20       1    1pz               0.942964       1.324521

                         21       1    1px               0.651606       0.834491
                         21       1    1py               0.651606       0.834491
                         21       1    1pz               0.651606       0.834491

                         22       1    1px               0.416555       0.477013
                         22       1    1py               0.416555       0.477013
                         22       1    1pz               0.416555       0.477013

                         23       1    1px               0.209989       0.202622
                         23       1    1py               0.209989       0.202622
                         23       1    1pz               0.209989       0.202622

                         24       1    1dx2             95.737500    4822.842736
                         24       1    1dxy             95.737500    8353.408656
                         24       1    1dxz             95.737500    8353.408656
                         24       1    1dy2             95.737500    4822.842736
                         24       1    1dyz             95.737500    8353.408656
                         24       1    1dz2             95.737500    4822.842736

                         25       1    1dx2             31.280400     680.982541
                         25       1    1dxy             31.280400    1179.496360
                         25       1    1dxz             31.280400    1179.496360
                         25       1    1dy2             31.280400     680.982541
                         25       1    1dyz             31.280400    1179.496360
                         25       1    1dz2             31.280400     680.982541

                         26       1    1dx2             10.412400      99.339835
                         26       1    1dxy             10.412400     172.061641
                         26       1    1dxz             10.412400     172.061641
                         26       1    1dy2             10.412400      99.339835
                         26       1    1dyz             10.412400     172.061641
                         26       1    1dz2             10.412400      99.339835

                         27       1    1dx2              5.060970      28.107262
                         27       1    1dxy              5.060970      48.683206
                         27       1    1dxz              5.060970      48.683206
                         27       1    1dy2              5.060970      28.107262
                         27       1    1dyz              5.060970      48.683206
                         27       1    1dz2              5.060970      28.107262

                         28       1    1dx2              1.908710       5.101576
                         28       1    1dxy              1.908710       8.836189
                         28       1    1dxz              1.908710       8.836189
                         28       1    1dy2              1.908710       5.101576
                         28       1    1dyz              1.908710       8.836189
                         28       1    1dz2              1.908710       5.101576

                         29       1    1dx2              1.252180       2.439643
                         29       1    1dxy              1.252180       4.225586
                         29       1    1dxz              1.252180       4.225586
                         29       1    1dy2              1.252180       2.439643
                         29       1    1dyz              1.252180       4.225586
                         29       1    1dz2              1.252180       2.439643

                         30       1    1dx2              0.682681       0.843899
                         30       1    1dxy              0.682681       1.461676
                         30       1    1dxz              0.682681       1.461676
                         30       1    1dy2              0.682681       0.843899
                         30       1    1dyz              0.682681       1.461676
                         30       1    1dz2              0.682681       0.843899

                         31       1    1dx2              0.362559       0.278819
                         31       1    1dxy              0.362559       0.482928
                         31       1    1dxz              0.362559       0.482928
                         31       1    1dy2              0.362559       0.278819
                         31       1    1dyz              0.362559       0.482928
                         31       1    1dz2              0.362559       0.278819

                         32       1    1dx2              0.197272       0.096111
                         32       1    1dxy              0.197272       0.166469
                         32       1    1dxz              0.197272       0.166469
                         32       1    1dy2              0.197272       0.096111
                         32       1    1dyz              0.197272       0.166469
                         32       1    1dz2              0.197272       0.096111

                         33       1    1fx3             18.275800    1016.661418
                         33       1    1fx2y            18.275800    2273.324040
                         33       1    1fx2z            18.275800    2273.324040
                         33       1    1fxy2            18.275800    2273.324040
                         33       1    1fxyz            18.275800    3937.512739
                         33       1    1fxz2            18.275800    2273.324040
                         33       1    1fy3             18.275800    1016.661418
                         33       1    1fy2z            18.275800    2273.324040
                         33       1    1fyz2            18.275800    2273.324040
                         33       1    1fz3             18.275800    1016.661418

                         34       1    1fx3              8.742590     193.483841
                         34       1    1fx2y             8.742590     432.643022
                         34       1    1fx2z             8.742590     432.643022
                         34       1    1fxy2             8.742590     432.643022
                         34       1    1fxyz             8.742590     749.359696
                         34       1    1fxz2             8.742590     432.643022
                         34       1    1fy3              8.742590     193.483841
                         34       1    1fy2z             8.742590     432.643022
                         34       1    1fyz2             8.742590     432.643022
                         34       1    1fz3              8.742590     193.483841

                         35       1    1fx3              4.159680      36.378038
                         35       1    1fx2y             4.159680      81.343766
                         35       1    1fx2z             4.159680      81.343766
                         35       1    1fxy2             4.159680      81.343766
                         35       1    1fxyz             4.159680     140.891536
                         35       1    1fxz2             4.159680      81.343766
                         35       1    1fy3              4.159680      36.378038
                         35       1    1fy2z             4.159680      81.343766
                         35       1    1fyz2             4.159680      81.343766
                         35       1    1fz3              4.159680      36.378038

                         36       1    1fx3              1.753440       5.208456
                         36       1    1fx2y             1.753440      11.646462
                         36       1    1fx2z             1.753440      11.646462
                         36       1    1fxy2             1.753440      11.646462
                         36       1    1fxyz             1.753440      20.172263
                         36       1    1fxz2             1.753440      11.646462
                         36       1    1fy3              1.753440       5.208456
                         36       1    1fy2z             1.753440      11.646462
                         36       1    1fyz2             1.753440      11.646462
                         36       1    1fz3              1.753440       5.208456

                         37       1    1fx3              1.256690       2.461602
                         37       1    1fx2y             1.256690       5.504309
                         37       1    1fx2z             1.256690       5.504309
                         37       1    1fxy2             1.256690       5.504309
                         37       1    1fxyz             1.256690       9.533743
                         37       1    1fxz2             1.256690       5.504309
                         37       1    1fy3              1.256690       2.461602
                         37       1    1fy2z             1.256690       5.504309
                         37       1    1fyz2             1.256690       5.504309
                         37       1    1fz3              1.256690       2.461602

                         38       1    1fx3              0.652248       0.562838
                         38       1    1fx2y             0.652248       1.258543
                         38       1    1fx2z             0.652248       1.258543
                         38       1    1fxy2             0.652248       1.258543
                         38       1    1fxyz             0.652248       2.179861
                         38       1    1fxz2             0.652248       1.258543
                         38       1    1fy3              0.652248       0.562838
                         38       1    1fy2z             0.652248       1.258543
                         38       1    1fyz2             0.652248       1.258543
                         38       1    1fz3              0.652248       0.562838

                         39       1    1fx3              0.352049       0.140544
                         39       1    1fx2y             0.352049       0.314265
                         39       1    1fx2z             0.352049       0.314265
                         39       1    1fxy2             0.352049       0.314265
                         39       1    1fxyz             0.352049       0.544324
                         39       1    1fxz2             0.352049       0.314265
                         39       1    1fy3              0.352049       0.140544
                         39       1    1fy2z             0.352049       0.314265
                         39       1    1fyz2             0.352049       0.314265
                         39       1    1fz3              0.352049       0.140544

                         40       1    1gx4              5.629410     128.886772
                         40       1    1gx3y             5.629410     341.002345
                         40       1    1gx3z             5.629410     341.002345
                         40       1    1gx2y2            5.629410     440.232135
                         40       1    1gx2yz            5.629410     762.504425
                         40       1    1gx2z2            5.629410     440.232135
                         40       1    1gxy3             5.629410     341.002345
                         40       1    1gxy2z            5.629410     762.504425
                         40       1    1gxyz2            5.629410     762.504425
                         40       1    1gxz3             5.629410     341.002345
                         40       1    1gy4              5.629410     128.886772
                         40       1    1gy3z             5.629410     341.002345
                         40       1    1gy2z2            5.629410     440.232135
                         40       1    1gyz3             5.629410     341.002345
                         40       1    1gz4              5.629410     128.886772

                         41       1    1gx4              2.415590      12.581989
                         41       1    1gx3y             2.415590      33.288813
                         41       1    1gx3z             2.415590      33.288813
                         41       1    1gx2y2            2.415590      42.975673
                         41       1    1gx2yz            2.415590      74.436049
                         41       1    1gx2z2            2.415590      42.975673
                         41       1    1gxy3             2.415590      33.288813
                         41       1    1gxy2z            2.415590      74.436049
                         41       1    1gxyz2            2.415590      74.436049
                         41       1    1gxz3             2.415590      33.288813
                         41       1    1gy4              2.415590      12.581989
                         41       1    1gy3z             2.415590      33.288813
                         41       1    1gy2z2            2.415590      42.975673
                         41       1    1gyz3             2.415590      33.288813
                         41       1    1gz4              2.415590      12.581989

                         42       1    1gx4              1.329300       2.434438
                         42       1    1gx3y             1.329300       6.440917
                         42       1    1gx3z             1.329300       6.440917
                         42       1    1gx2y2            1.329300       8.315188
                         42       1    1gx2yz            1.329300      14.402328
                         42       1    1gx2z2            1.329300       8.315188
                         42       1    1gxy3             1.329300       6.440917
                         42       1    1gxy2z            1.329300      14.402328
                         42       1    1gxyz2            1.329300      14.402328
                         42       1    1gxz3             1.329300       6.440917
                         42       1    1gy4              1.329300       2.434438
                         42       1    1gy3z             1.329300       6.440917
                         42       1    1gy2z2            1.329300       8.315188
                         42       1    1gyz3             1.329300       6.440917
                         42       1    1gz4              1.329300       2.434438

                         43       1    1gx4              0.800123       0.602721
                         43       1    1gx3y             0.800123       1.594651
                         43       1    1gx3z             0.800123       1.594651
                         43       1    1gx2y2            0.800123       2.058685
                         43       1    1gx2yz            0.800123       3.565747
                         43       1    1gx2z2            0.800123       2.058685
                         43       1    1gxy3             0.800123       1.594651
                         43       1    1gxy2z            0.800123       3.565747
                         43       1    1gxyz2            0.800123       3.565747
                         43       1    1gxz3             0.800123       1.594651
                         43       1    1gy4              0.800123       0.602721
                         43       1    1gy3z             0.800123       1.594651
                         43       1    1gy2z2            0.800123       2.058685
                         43       1    1gyz3             0.800123       1.594651
                         43       1    1gz4              0.800123       0.602721

                         44       1    1gx4              0.397931       0.088289
                         44       1    1gx3y             0.397931       0.233591
                         44       1    1gx3z             0.397931       0.233591
                         44       1    1gx2y2            0.397931       0.301564
                         44       1    1gx2yz            0.397931       0.522325
                         44       1    1gx2z2            0.397931       0.301564
                         44       1    1gxy3             0.397931       0.233591
                         44       1    1gxy2z            0.397931       0.522325
                         44       1    1gxyz2            0.397931       0.522325
                         44       1    1gxz3             0.397931       0.233591
                         44       1    1gy4              0.397931       0.088289
                         44       1    1gy3z             0.397931       0.233591
                         44       1    1gy2z2            0.397931       0.301564
                         44       1    1gyz3             0.397931       0.233591
                         44       1    1gz4              0.397931       0.088289

                         45       1    1hx5              3.404060      39.749813
                         45       1    1hx4y             3.404060     119.249438
                         45       1    1hx4z             3.404060     119.249438
                         45       1    1hx3y2            3.404060     182.156526
                         45       1    1hx3yz            3.404060     315.504357
                         45       1    1hx3z2            3.404060     182.156526
                         45       1    1hx2y3            3.404060     182.156526
                         45       1    1hx2y2z           3.404060     407.314374
                         45       1    1hx2yz2           3.404060     407.314374
                         45       1    1hx2z3            3.404060     182.156526
                         45       1    1hxy4             3.404060     119.249438
                         45       1    1hxy3z            3.404060     315.504357
                         45       1    1hxy2z2           3.404060     407.314374
                         45       1    1hxyz3            3.404060     315.504357
                         45       1    1hxz4             3.404060     119.249438
                         45       1    1hy5              3.404060      39.749813
                         45       1    1hy4z             3.404060     119.249438
                         45       1    1hy3z2            3.404060     182.156526
                         45       1    1hy2z3            3.404060     182.156526
                         45       1    1hyz4             3.404060     119.249438
                         45       1    1hz5              3.404060      39.749813

                         46       1    1hx5              1.377130       2.099001
                         46       1    1hx4y             1.377130       6.297004
                         46       1    1hx4z             1.377130       6.297004
                         46       1    1hx3y2            1.377130       9.618833
                         46       1    1hx3yz            1.377130      16.660307
                         46       1    1hx3z2            1.377130       9.618833
                         46       1    1hx2y3            1.377130       9.618833
                         46       1    1hx2y2z           1.377130      21.508364
                         46       1    1hx2yz2           1.377130      21.508364
                         46       1    1hx2z3            1.377130       9.618833
                         46       1    1hxy4             1.377130       6.297004
                         46       1    1hxy3z            1.377130      16.660307
                         46       1    1hxy2z2           1.377130      21.508364
                         46       1    1hxyz3            1.377130      16.660307
                         46       1    1hxz4             1.377130       6.297004
                         46       1    1hy5              1.377130       2.099001
                         46       1    1hy4z             1.377130       6.297004
                         46       1    1hy3z2            1.377130       9.618833
                         46       1    1hy2z3            1.377130       9.618833
                         46       1    1hyz4             1.377130       6.297004
                         46       1    1hz5              1.377130       2.099001

                         47       1    1hx5              0.718603       0.253474
                         47       1    1hx4y             0.718603       0.760422
                         47       1    1hx4z             0.718603       0.760422
                         47       1    1hx3y2            0.718603       1.161564
                         47       1    1hx3yz            0.718603       2.011888
                         47       1    1hx3z2            0.718603       1.161564
                         47       1    1hx2y3            0.718603       1.161564
                         47       1    1hx2y2z           0.718603       2.597336
                         47       1    1hx2yz2           0.718603       2.597336
                         47       1    1hx2z3            0.718603       1.161564
                         47       1    1hxy4             0.718603       0.760422
                         47       1    1hxy3z            0.718603       2.011888
                         47       1    1hxy2z2           0.718603       2.597336
                         47       1    1hxyz3            0.718603       2.011888
                         47       1    1hxz4             0.718603       0.760422
                         47       1    1hy5              0.718603       0.253474
                         47       1    1hy4z             0.718603       0.760422
                         47       1    1hy3z2            0.718603       1.161564
                         47       1    1hy2z3            0.718603       1.161564
                         47       1    1hyz4             0.718603       0.760422
                         47       1    1hz5              0.718603       0.253474

                         48       1    1ix6              1.217610       0.936124
                         48       1    1ix5y             1.217610       3.104774
                         48       1    1ix5z             1.217610       3.104774
                         48       1    1ix4y2            1.217610       5.377626
                         48       1    1ix4yz            1.217610       9.314321
                         48       1    1ix4z2            1.217610       5.377626
                         48       1    1ix3y3            1.217610       6.362892
                         48       1    1ix3y2z           1.217610      14.227860
                         48       1    1ix3yz2           1.217610      14.227860
                         48       1    1ix3z3            1.217610       6.362892
                         48       1    1ix2y4            1.217610       5.377626
                         48       1    1ix2y3z           1.217610      14.227860
                         48       1    1ix2y2z2          1.217610      18.368088
                         48       1    1ix2yz3           1.217610      14.227860
                         48       1    1ix2z4            1.217610       5.377626
                         48       1    1ixy5             1.217610       3.104774
                         48       1    1ixy4z            1.217610       9.314321
                         48       1    1ixy3z2           1.217610      14.227860
                         48       1    1ixy2z3           1.217610      14.227860
                         48       1    1ixyz4            1.217610       9.314321
                         48       1    1ixz5             1.217610       3.104774
                         48       1    1iy6              1.217610       0.936124
                         48       1    1iy5z             1.217610       3.104774
                         48       1    1iy4z2            1.217610       5.377626
                         48       1    1iy3z3            1.217610       6.362892
                         48       1    1iy2z4            1.217610       5.377626
                         48       1    1iyz5             1.217610       3.104774
                         48       1    1iz6              1.217610       0.936124

     The atoms of this atomic kind are PAW atoms (GAPW):
       Hard Gaussian function radius:                                      1.512
       Rho0 radius:                                                        1.512
       Maximum GTO radius used for PAW projector construction:            24.566

     GAPW Soft Basis Set                                          def2-QZVP_soft

       Number of orbital shell sets:                                          22
       Number of orbital shells:                                              22
       Number of primitive Cartesian functions:                               17
       Number of Cartesian basis functions:                                   86
       Number of spherical basis functions:                                   70
       Norm type:                                                              2

       Normalised Cartesian orbitals:

                        Set   Shell   Orbital            Exponent    Coefficient

                          1       1    1s         

                          2       1    1s         

                          3       1    1s         

                          4       1    1s         

                          5       1    1s                3.862935       1.963804

                          6       1    1s                1.779468       1.098064

                          7       1    1s                0.610643       0.492323

                          8       1    1s                0.274123       0.270003

                          9       1    1s                0.113259       0.139144

                         10       1    1px               2.470191       1.371690
                         10       1    1py               2.470191       1.371690
                         10       1    1pz               2.470191       1.371690

                         11       1    1px        
                         11       1    1py        
                         11       1    1pz        

                         12       1    1px               1.082826       1.574485
                         12       1    1py               1.082826       1.574485
                         12       1    1pz               1.082826       1.574485

                         13       1    1px               0.492713       0.588413
                         13       1    1py               0.492713       0.588413
                         13       1    1pz               0.492713       0.588413

                         14       1    1px               0.204835       0.196424
                         14       1    1py               0.204835       0.196424
                         14       1    1pz               0.204835       0.196424

                         15       1    1px               0.080744       0.061352
                         15       1    1py               0.080744       0.061352
                         15       1    1pz               0.080744       0.061352

                         16       1    1dx2              4.159000      19.936094
                         16       1    1dxy              4.159000      34.530327
                         16       1    1dxz              4.159000      34.530327
                         16       1    1dy2              4.159000      19.936094
                         16       1    1dyz              4.159000      34.530327
                         16       1    1dz2              4.159000      19.936094

                         17       1    1dx2              1.019000       1.701039
                         17       1    1dxy              1.019000       2.946286
                         17       1    1dxz              1.019000       2.946286
                         17       1    1dy2              1.019000       1.701039
                         17       1    1dyz              1.019000       2.946286
                         17       1    1dz2              1.019000       1.701039

                         18       1    1dx2              0.464000       0.429354
                         18       1    1dxy              0.464000       0.743664
                         18       1    1dxz              0.464000       0.743664
                         18       1    1dy2              0.464000       0.429354
                         18       1    1dyz              0.464000       0.743664
                         18       1    1dz2              0.464000       0.429354

                         19       1    1dx2              0.194000       0.093339
                         19       1    1dxy              0.194000       0.161668
                         19       1    1dxz              0.194000       0.161668
                         19       1    1dy2              0.194000       0.093339
                         19       1    1dyz              0.194000       0.161668
                         19       1    1dz2              0.194000       0.093339

                         20       1    1fx3              0.335000       0.125691
                         20       1    1fx2y             0.335000       0.281054
                         20       1    1fx2z             0.335000       0.281054
                         20       1    1fxy2             0.335000       0.281054
                         20       1    1fxyz             0.335000       0.486800
                         20       1    1fxz2             0.335000       0.281054
                         20       1    1fy3              0.335000       0.125691
                         20       1    1fy2z             0.335000       0.281054
                         20       1    1fyz2             0.335000       0.281054
                         20       1    1fz3              0.335000       0.125691

                         21       1    1fx3              0.869000       1.073369
                         21       1    1fx2y             0.869000       2.400125
                         21       1    1fx2z             0.869000       2.400125
                         21       1    1fxy2             0.869000       2.400125
                         21       1    1fxyz             0.869000       4.157139
                         21       1    1fxz2             0.869000       2.400125
                         21       1    1fy3              0.869000       1.073369
                         21       1    1fy2z             0.869000       2.400125
                         21       1    1fyz2             0.869000       2.400125
                         21       1    1fz3              0.869000       1.073369

                         22       1    1gx4              0.683000       0.390025
                         22       1    1gx3y             0.683000       1.031909
                         22       1    1gx3z             0.683000       1.031909
                         22       1    1gx2y2            0.683000       1.332189
                         22       1    1gx2yz            0.683000       2.307419
                         22       1    1gx2z2            0.683000       1.332189
                         22       1    1gxy3             0.683000       1.031909
                         22       1    1gxy2z            0.683000       2.307419
                         22       1    1gxyz2            0.683000       2.307419
                         22       1    1gxz3             0.683000       1.031909
                         22       1    1gy4              0.683000       0.390025
                         22       1    1gy3z             0.683000       1.031909
                         22       1    1gy2z2            0.683000       1.332189
                         22       1    1gyz3             0.683000       1.031909
                         22       1    1gz4              0.683000       0.390025

     AE Potential information for                                            ALL

       Description:                                       All-electron potential
                                          Krack, Parrinello, PCCP 2, 2105 (2000)

       Gaussian exponent of the core charge distribution:               2.834467
       Electronic configuration (s p d ...):                           6  10   0

  2. Atomic kind: H                                     Number of atoms:       2

     Orbital Basis Set                                                 def2-QZVP

       Number of orbital shell sets:                                          10
       Number of orbital shells:                                              10
       Number of primitive Cartesian functions:                               13
       Number of Cartesian basis functions:                                   35
       Number of spherical basis functions:                                   30
       Norm type:                                                              2

       Normalised Cartesian orbitals:

                        Set   Shell   Orbital            Exponent    Coefficient

                          1       1    1s              190.691690       0.195396
                                                        28.605532       0.363661
                                                         6.509594       0.612837
                                                         1.841246       0.914889

                          2       1    1s                0.598537       0.484985

                          3       1    1s                0.213976       0.224225

                          4       1    1s                0.080316       0.107526

                          5       1    1px               2.292000       4.019836
                          5       1    1py               2.292000       4.019836
                          5       1    1pz               2.292000       4.019836

                          6       1    1px               0.838000       1.142865
                          6       1    1py               0.838000       1.142865
                          6       1    1pz               0.838000       1.142865

                          7       1    1px               0.292000       0.305963
                          7       1    1py               0.292000       0.305963
                          7       1    1pz               0.292000       0.305963

                          8       1    1dx2              2.062000       5.840024
                          8       1    1dxy              2.062000      10.115218
                          8       1    1dxz              2.062000      10.115218
                          8       1    1dy2              2.062000       5.840024
                          8       1    1dyz              2.062000      10.115218
                          8       1    1dz2              2.062000       5.840024

                          9       1    1dx2              0.662000       0.799670
                          9       1    1dxy              0.662000       1.385069
                          9       1    1dxz              0.662000       1.385069
                          9       1    1dy2              0.662000       0.799670
                          9       1    1dyz              0.662000       1.385069
                          9       1    1dz2              0.662000       0.799670

                         10       1    1fx3              1.397000       3.123535
                         10       1    1fx2y             1.397000       6.984436
                         10       1    1fx2z             1.397000       6.984436
                         10       1    1fxy2             1.397000       6.984436
                         10       1    1fxyz             1.397000      12.097399
                         10       1    1fxz2             1.397000       6.984436
                         10       1    1fy3              1.397000       3.123535
                         10       1    1fy2z             1.397000       6.984436
                         10       1    1fyz2             1.397000       6.984436
                         10       1    1fz3              1.397000       3.123535

     RI Auxiliary Basis Set                                                RI-5Z

       Number of orbital shell sets:                                          21
       Number of orbital shells:                                              21
       Number of primitive Cartesian functions:                               21
       Number of Cartesian basis functions:                                  126
       Number of spherical basis functions:                                   91
       Norm type:                                                              2

       Normalised Cartesian orbitals:

                        Set   Shell   Orbital            Exponent    Coefficient

                          1       1    1s               23.321500       7.563581

                          2       1    1s                4.922970       2.355486

                          3       1    1s                1.775100       1.096042

                          4       1    1s                0.994218       0.709613

                          5       1    1s                0.506054       0.427620

                          6       1    1s                0.236911       0.242019

                          7       1    1px               5.974580      13.314483
                          7       1    1py               5.974580      13.314483
                          7       1    1pz               5.974580      13.314483

                          8       1    1px               2.052170       3.501118
                          8       1    1py               2.052170       3.501118
                          8       1    1pz               2.052170       3.501118

                          9       1    1px               1.248660       1.881462
                          9       1    1py               1.248660       1.881462
                          9       1    1pz               1.248660       1.881462

                         10       1    1px               0.805545       1.087808
                         10       1    1py               0.805545       1.087808
                         10       1    1pz               0.805545       1.087808

                         11       1    1px               0.347892       0.380843
                         11       1    1py               0.347892       0.380843
                         11       1    1pz               0.347892       0.380843

                         12       1    1dx2              3.858160      17.481346
                         12       1    1dxy              3.858160      30.278579
                         12       1    1dxz              3.858160      30.278579
                         12       1    1dy2              3.858160      17.481346
                         12       1    1dyz              3.858160      30.278579
                         12       1    1dz2              3.858160      17.481346

                         13       1    1dx2              1.710630       4.211459
                         13       1    1dxy              1.710630       7.294461
                         13       1    1dxz              1.710630       7.294461
                         13       1    1dy2              1.710630       4.211459
                         13       1    1dyz              1.710630       7.294461
                         13       1    1dz2              1.710630       4.211459

                         14       1    1dx2              0.979237       1.586584
                         14       1    1dxy              0.979237       2.748044
                         14       1    1dxz              0.979237       2.748044
                         14       1    1dy2              0.979237       1.586584
                         14       1    1dyz              0.979237       2.748044
                         14       1    1dz2              0.979237       1.586584

                         15       1    1dx2              0.625366       0.723843
                         15       1    1dxy              0.625366       1.253733
                         15       1    1dxz              0.625366       1.253733
                         15       1    1dy2              0.625366       0.723843
                         15       1    1dyz              0.625366       1.253733
                         15       1    1dz2              0.625366       0.723843

                         16       1    1fx3              3.101510      18.792914
                         16       1    1fx2y             3.101510      42.022232
                         16       1    1fx2z             3.101510      42.022232
                         16       1    1fxy2             3.101510      42.022232
                         16       1    1fxyz             3.101510      72.784641
                         16       1    1fxz2             3.101510      42.022232
                         16       1    1fy3              3.101510      18.792914
                         16       1    1fy2z             3.101510      42.022232
                         16       1    1fyz2             3.101510      42.022232
                         16       1    1fz3              3.101510      18.792914

                         17       1    1fx3              1.198110       2.210915
                         17       1    1fx2y             1.198110       4.943756
                         17       1    1fx2z             1.198110       4.943756
                         17       1    1fxy2             1.198110       4.943756
                         17       1    1fxyz             1.198110       8.562836
                         17       1    1fxz2             1.198110       4.943756
                         17       1    1fy3              1.198110       2.210915
                         17       1    1fy2z             1.198110       4.943756
                         17       1    1fyz2             1.198110       4.943756
                         17       1    1fz3              1.198110       2.210915

                         18       1    1fx3              0.572873       0.420326
                         18       1    1fx2y             0.572873       0.939876
                         18       1    1fx2z             0.572873       0.939876
                         18       1    1fxy2             0.572873       0.939876
                         18       1    1fxyz             0.572873       1.627914
                         18       1    1fxz2             0.572873       0.939876
                         18       1    1fy3              0.572873       0.420326
                         18       1    1fy2z             0.572873       0.939876
                         18       1    1fyz2             0.572873       0.939876
                         18       1    1fz3              0.572873       0.420326

                         19       1    1gx4              2.987800      22.576266
                         19       1    1gx3y             2.987800      59.731185
                         19       1    1gx3z             2.987800      59.731185
                         19       1    1gx2y2            2.987800      77.112629
                         19       1    1gx2yz            2.987800     133.562991
                         19       1    1gx2z2            2.987800      77.112629
                         19       1    1gxy3             2.987800      59.731185
                         19       1    1gxy2z            2.987800     133.562991
                         19       1    1gxyz2            2.987800     133.562991
                         19       1    1gxz3             2.987800      59.731185
                         19       1    1gy4              2.987800      22.576266
                         19       1    1gy3z             2.987800      59.731185
                         19       1    1gy2z2            2.987800      77.112629
                         19       1    1gyz3             2.987800      59.731185
                         19       1    1gz4              2.987800      22.576266

                         20       1    1gx4              1.231920       1.974865
                         20       1    1gx3y             1.231920       5.225001
                         20       1    1gx3z             1.231920       5.225001
                         20       1    1gx2y2            1.231920       6.745447
                         20       1    1gx2yz            1.231920      11.683456
                         20       1    1gx2z2            1.231920       6.745447
                         20       1    1gxy3             1.231920       5.225001
                         20       1    1gxy2z            1.231920      11.683456
                         20       1    1gxyz2            1.231920      11.683456
                         20       1    1gxz3             1.231920       5.225001
                         20       1    1gy4              1.231920       1.974865
                         20       1    1gy3z             1.231920       5.225001
                         20       1    1gy2z2            1.231920       6.745447
                         20       1    1gyz3             1.231920       5.225001
                         20       1    1gz4              1.231920       1.974865

                         21       1    1hx5              3.247390      34.106027
                         21       1    1hx4y             3.247390     102.318080
                         21       1    1hx4z             3.247390     102.318080
                         21       1    1hx3y2            3.247390     156.293448
                         21       1    1hx3yz            3.247390     270.708193
                         21       1    1hx3z2            3.247390     156.293448
                         21       1    1hx2y3            3.247390     156.293448
                         21       1    1hx2y2z           3.247390     349.482775
                         21       1    1hx2yz2           3.247390     349.482775
                         21       1    1hx2z3            3.247390     156.293448
                         21       1    1hxy4             3.247390     102.318080
                         21       1    1hxy3z            3.247390     270.708193
                         21       1    1hxy2z2           3.247390     349.482775
                         21       1    1hxyz3            3.247390     270.708193
                         21       1    1hxz4             3.247390     102.318080
                         21       1    1hy5              3.247390      34.106027
                         21       1    1hy4z             3.247390     102.318080
                         21       1    1hy3z2            3.247390     156.293448
                         21       1    1hy2z3            3.247390     156.293448
                         21       1    1hyz4             3.247390     102.318080
                         21       1    1hz5              3.247390      34.106027

     The atoms of this atomic kind are PAW atoms (GAPW):
       Hard Gaussian function radius:                                      1.200
       Rho0 radius:                                                        1.200
       Maximum GTO radius used for PAW projector construction:            24.566

     GAPW Soft Basis Set                                          def2-QZVP_soft

       Number of orbital shell sets:                                          10
       Number of orbital shells:                                              10
       Number of primitive Cartesian functions:                               10
       Number of Cartesian basis functions:                                   35
       Number of spherical basis functions:                                   30
       Norm type:                                                              2

       Normalised Cartesian orbitals:

                        Set   Shell   Orbital            Exponent    Coefficient

                          1       1    1s                1.841246       0.914889

                          2       1    1s                0.598537       0.484985

                          3       1    1s                0.213976       0.224225

                          4       1    1s                0.080316       0.107526

                          5       1    1px               2.292000       4.019836
                          5       1    1py               2.292000       4.019836
                          5       1    1pz               2.292000       4.019836

                          6       1    1px               0.838000       1.142865
                          6       1    1py               0.838000       1.142865
                          6       1    1pz               0.838000       1.142865

                          7       1    1px               0.292000       0.305963
                          7       1    1py               0.292000       0.305963
                          7       1    1pz               0.292000       0.305963

                          8       1    1dx2              2.062000       5.840024
                          8       1    1dxy              2.062000      10.115218
                          8       1    1dxz              2.062000      10.115218
                          8       1    1dy2              2.062000       5.840024
                          8       1    1dyz              2.062000      10.115218
                          8       1    1dz2              2.062000       5.840024

                          9       1    1dx2              0.662000       0.799670
                          9       1    1dxy              0.662000       1.385069
                          9       1    1dxz              0.662000       1.385069
                          9       1    1dy2              0.662000       0.799670
                          9       1    1dyz              0.662000       1.385069
                          9       1    1dz2              0.662000       0.799670

                         10       1    1fx3              1.397000       3.123535
                         10       1    1fx2y             1.397000       6.984436
                         10       1    1fx2z             1.397000       6.984436
                         10       1    1fxy2             1.397000       6.984436
                         10       1    1fxyz             1.397000      12.097399
                         10       1    1fxz2             1.397000       6.984436
                         10       1    1fy3              1.397000       3.123535
                         10       1    1fy2z             1.397000       6.984436
                         10       1    1fyz2             1.397000       6.984436
                         10       1    1fz3              1.397000       3.123535

     AE Potential information for                                            ALL

       Description:                                       All-electron potential
                                          Krack, Parrinello, PCCP 2, 2105 (2000)

       Gaussian exponent of the core charge distribution:              12.500000
       Electronic configuration (s p d ...):                           1   0   0


 MOLECULE KIND INFORMATION


 All atoms are their own molecule, skipping detailed information


 TOTAL NUMBERS AND MAXIMUM NUMBERS

  Total number of            - Atomic kinds:                                   2
                             - Atoms:                                          3
[...]
 flops   412 x    30 x    91           1196744640     100.0%      0.0%      0.0%
 flops   412 x    30 x   230           1512369600     100.0%      0.0%      0.0%
 flops    30 x   330 x    30           1596672000     100.0%      0.0%      0.0%
 flops    30 x   330 x    70           1862784000     100.0%      0.0%      0.0%
 flops    30 x   770 x    30           1862784000     100.0%      0.0%      0.0%
 flops    70 x   330 x    30           1929312000     100.0%      0.0%      0.0%
 flops    30 x   770 x    70           2173248000     100.0%      0.0%      0.0%
 flops    70 x   330 x    70           2250864000     100.0%      0.0%      0.0%
 flops    70 x   770 x    30           2250864000     100.0%      0.0%      0.0%
 flops    70 x   770 x    70           2626008000     100.0%      0.0%      0.0%
 flops   412 x   100 x    30           2630208000     100.0%      0.0%      0.0%
 flops   412 x   100 x    70           3068576000     100.0%      0.0%      0.0%
 flops    30 x   300 x    30           3386880000     100.0%      0.0%      0.0%
 flops    30 x   300 x    70           3951360000     100.0%      0.0%      0.0%
 flops    30 x   700 x    30           3951360000     100.0%      0.0%      0.0%
 flops   412 x   100 x    91           3989148800     100.0%      0.0%      0.0%
 flops    70 x   300 x    30           4092480000     100.0%      0.0%      0.0%
 flops    91 x    91 x   442           4099426240     100.0%      0.0%      0.0%
 flops    30 x   700 x    70           4609920000     100.0%      0.0%      0.0%
 flops    70 x   300 x    70           4774560000     100.0%      0.0%      0.0%
 flops    70 x   700 x    30           4774560000     100.0%      0.0%      0.0%
 flops   412 x   100 x   230           5041232000     100.0%      0.0%      0.0%
 flops   230 x    91 x   442           5180593600     100.0%      0.0%      0.0%
 flops    91 x   230 x   442           5180593600     100.0%      0.0%      0.0%
 flops    70 x   700 x    70           5570320000     100.0%      0.0%      0.0%
 flops   230 x   230 x   442           6546904000     100.0%      0.0%      0.0%
 flops    91 x    91 x   416          11574850560     100.0%      0.0%      0.0%
 flops   230 x    91 x   416          14627558400     100.0%      0.0%      0.0%
 flops    91 x   230 x   416          14627558400     100.0%      0.0%      0.0%
 flops   230 x   230 x   416          18485376000     100.0%      0.0%      0.0%
 flops inhomo. stacks                           0       0.0%      0.0%      0.0%
 flops total                       153.101802E+09     100.0%      0.0%      0.0%
 flops max/rank                     19.493528E+09     100.0%      0.0%      0.0%
 matmuls inhomo. stacks                         0       0.0%      0.0%      0.0%
 matmuls total                              40881     100.0%      0.0%      0.0%
 number of processed stacks                 16462     100.0%      0.0%      0.0%
 average stack size                                     2.5       0.0       0.0
 marketing flops                   153.933480E+09
 -------------------------------------------------------------------------------
 # multiplications                            867
 max memory usage/rank             552.996864E+06
 # max total images/rank                        5
 # max 3D layers                                1
 # MPI messages exchanged                 1087680
 MPI messages size (bytes):
  total size                         6.092521E+09
  min size                           0.000000E+00
  max size                         758.080000E+03
  average size                       5.601392E+03
 MPI breakdown and total messages size (bytes):
             size <=      128             1050909                        0
       128 < size <=     8192                3258                 23306400
      8192 < size <=    32768                6525                140538240
     32768 < size <=   131072               13674               1203650112
    131072 < size <=  4194304               13314               4725027552
   4194304 < size <= 16777216                   0                        0
  16777216 < size                               0                        0
 -------------------------------------------------------------------------------

 *** WARNING in dbcsr_mm.F:278 :: Using a non-square number of MPI ranks ***
 *** might lead to poor performance. Used ranks: 40 Suggested: 36 81     ***

 -------------------------------------------------------------------------------
 -                                                                             -
 -                      DBCSR MESSAGE PASSING PERFORMANCE                      -
 -                                                                             -
 -------------------------------------------------------------------------------

 ROUTINE             CALLS      AVE VOLUME [Bytes]
 MP_Group               43
 MP_Bcast               53                     12.
 MP_Allreduce         4995                      8.
 MP_Alltoall          2779                  47550.
 MP_Wait             60360
 MP_ISend            59556                  15283.
 MP_IRecv            59508                   4708.
 MP_Memory           93166
 -------------------------------------------------------------------------------


 MEMORY| Estimated peak process memory [MiB]                                 528

 -------------------------------------------------------------------------------
 ----                             MULTIGRID INFO                            ----
 -------------------------------------------------------------------------------
 count for grid        1:         394072          cutoff [a.u.]          200.00
 count for grid        2:          60296          cutoff [a.u.]           66.67
 count for grid        3:          27374          cutoff [a.u.]           22.22
 count for grid        4:           5467          cutoff [a.u.]            7.41
 total gridlevel count  :         487209

 -------------------------------------------------------------------------------
 -                                                                             -
 -                         MESSAGE PASSING PERFORMANCE                         -
 -                                                                             -
 -------------------------------------------------------------------------------

 ROUTINE             CALLS      AVE VOLUME [Bytes]
 MP_Group                5
 MP_Bcast              245                2328337.
 MP_Allreduce          583                  89864.
 MP_Sync                81
 MP_Alltoall           303                5749387.
 MP_ISendRecv         1872                  47259.
 MP_Wait              5418
 MP_comm_split          19
 MP_ISend             7722                 101327.
 MP_IRecv             6664                 189764.
 MP_Recv                 8                   1040.
 -------------------------------------------------------------------------------


 -------------------------------------------------------------------------------
 -                                                                             -
 -                           R E F E R E N C E S                               -
 -                                                                             -
 -------------------------------------------------------------------------------
 
 CP2K version 7.0 (Development Version), the CP2K developers group (2018).
 CP2K is freely available from https://www.cp2k.org/ .

 Schuett, Ole; Messmer, Peter; Hutter, Juerg; VandeVondele, Joost. 
 Electronic Structure Calculations on Graphics Processing Units, John Wiley & Sons, Ltd, 173-190 (2016). 
 GPU-Accelerated Sparse Matrix-Matrix Multiplication for Linear Scaling Density Functional Theory.
 https://dx.doi.org/10.1002/9781118670712.ch8


 Del Ben, M; Schuett, O; Wentz, T; Messmer, P; Hutter, J;
 VandeVondele, J. 
 COMPUTER PHYSICS COMMUNICATIONS, 187, 120-129 (2015). 
 Enabling simulation at the fifth rung of DFT: Large scale RPA
 calculations with excellent time to solution.
 https://dx.doi.org/10.1016/j.cpc.2014.10.021


 Borstnik, U; VandeVondele, J; Weber, V; Hutter, J. 
 PARALLEL COMPUTING, 40 (5-6), 47-58 (2014). 
 Sparse matrix multiplication: The distributed block-compressed sparse
 row library.
 https://dx.doi.org/10.1016/j.parco.2014.03.012


 Hutter, J; Iannuzzi, M; Schiffmann, F; VandeVondele, J. 
 WILEY INTERDISCIPLINARY REVIEWS-COMPUTATIONAL MOLECULAR SCIENCE, 4 (1), 15-25 (2014). 
 CP2K: atomistic simulations of condensed matter systems.
 https://dx.doi.org/10.1002/wcms.1159


 Del Ben, M; Hutter, J; VandeVondele, J. 
 JOURNAL OF CHEMICAL THEORY AND COMPUTATION, 9 (6), 2654-2671 (2013). 
 Electron Correlation in the Condensed Phase from a Resolution of
 Identity Approach Based on the Gaussian and Plane Waves Scheme.
 https://dx.doi.org/10.1021/ct4002202


 Del Ben, M; Hutter, J; VandeVondele, J. 
 JOURNAL OF CHEMICAL THEORY AND COMPUTATION, 8 (11), 4177-4188 (2012). 
 Second-Order Moller-Plesset Perturbation Theory in the Condensed Phase:
 An Efficient and Massively Parallel Gaussian and Plane Waves Approach.
 https://dx.doi.org/10.1021/ct300531w


 Guidon, M; Hutter, J; VandeVondele, J. 
 JOURNAL OF CHEMICAL THEORY AND COMPUTATION, 5 (11), 3010-3021 (2009). 
 Robust Periodic Hartree-Fock Exchange for Large-Scale Simulations Using
 Gaussian Basis Sets.
 https://dx.doi.org/10.1021/ct900494g


 Guidon, M; Schiffmann, F; Hutter, J; VandeVondele, J. 
 JOURNAL OF CHEMICAL PHYSICS, 128 (21), 214104 (2008). 
 Ab initio molecular dynamics using hybrid density functionals.
 https://dx.doi.org/10.1063/1.2931945


 Frigo, M; Johnson, SG. 
 PROCEEDINGS OF THE IEEE, 93 (2), 216-231 (2005). 
 The design and implementation of FFTW3.
 https://dx.doi.org/10.1109/JPROC.2004.840301


 Lippert, G; Hutter, J; Parrinello, M. 
 THEORETICAL CHEMISTRY ACCOUNTS, 103 (2), 124-140 (1999). 
 The Gaussian and augmented-plane-wave density functional method for ab
 initio molecular dynamics simulations.
 https://dx.doi.org/10.1007/s002140050523


 Krack, M; Parrinello, M. 
 PHYSICAL CHEMISTRY CHEMICAL PHYSICS, 2 (10), 2105-2112 (2000). 
 All-electron ab-initio molecular dynamics.
 https://dx.doi.org/10.1039/b001167n


 Martyna, GJ; Tuckerman, ME. 
 JOURNAL OF CHEMICAL PHYSICS, 110 (6), 2810-2821 (1999). 
 A reciprocal space based method for treating long range interactions in
 ab initio and force-field-based calculations in clusters.
 https://dx.doi.org/10.1063/1.477923


 Perdew, JP; Burke, K; Ernzerhof, M. 
 PHYSICAL REVIEW LETTERS, 77 (18), 3865-3868 (1996). 
 Generalized gradient approximation made simple.
 https://dx.doi.org/10.1103/PhysRevLett.77.3865


 -------------------------------------------------------------------------------
 -                                                                             -
 -                                T I M I N G                                  -
 -                                                                             -
 -------------------------------------------------------------------------------
 SUBROUTINE                       CALLS  ASD         SELF TIME        TOTAL TIME
                                MAXIMUM       AVERAGE  MAXIMUM  AVERAGE  MAXIMUM
 CP2K                                 1  1.0    0.419    0.459  114.285  114.300
 qs_energies                          1  2.0    0.000    0.004  110.125  110.131
 mp2_main                             1  3.0    0.000    0.001   59.066   59.073
 scf_env_do_scf                       1  3.0    0.000    0.000   49.082   49.083
 scf_env_do_scf_inner_loop           10  4.0    0.002    0.010   49.082   49.082
 mp2_gpw_main                         1  4.0    0.000    0.001   38.643   38.648
 rpa_ri_compute_en                    1  5.0    0.000    0.003   33.015   33.020
 rpa_num_int                          1  6.0    0.002    0.018   32.141   32.148
 qs_ks_build_kohn_sham_matrix        11  6.8    0.007    0.053   30.939   30.986
 qs_ks_update_qs_env                 10  5.0    0.000    0.000   29.475   29.502
 rebuild_ks_matrix                   10  6.0    0.002    0.037   29.429   29.473
 compute_vec_Sigma_x_minus_vxc_       1  4.0    0.000    0.000   20.407   20.407
 integrate_four_center                1  5.0    0.008    0.014   18.883   18.888
 pw_transfer                        228  9.5    0.035    0.088   15.716   16.389
 fft_wrap_pw1pw2                    193 10.6    0.005    0.020   15.470   16.185
 fft_wrap_pw1pw2_200                126 11.7    0.810    0.930   14.113   14.748
 qs_scf_new_mos                      10  5.0    0.001    0.009   13.731   13.735
 fft3d_ps                           193 12.6    4.688    5.155   11.813   12.815
 dbcsr_multiply_generic             867  9.9    0.061    0.076   10.930   12.526
 rs_pw_transfer                     112  9.3    0.005    0.028   10.446   10.928
 copy_dbcsr_to_fm                    37  6.9    0.001    0.001   10.640   10.834
 dbcsr_complete_redistribute        120  9.5    0.009    0.053   10.576   10.664
 GW_postprocessing                    1  7.0    0.000    0.002   10.581   10.588
 compute_self_energy_im_time_gw       1  8.0    0.003    0.003   10.580   10.581
 qs_vxc_create                       11  7.8    0.002    0.025   10.062   10.114
 xc_vxc_pw_create                    10  9.0    0.097    0.137   10.060   10.114
 multiply_cannon                    867 10.9    0.187    0.214    6.920    9.629
 mp_sum_d                          1125  6.6    6.574    8.539    6.574    8.539
 calc_screening_functions             1  6.0    4.429    4.886    7.565    8.311
 eigensolver                         11  5.8    0.000    0.001    8.269    8.273
 cp_fm_syevd                         11  6.8    0.000    0.000    8.191    8.206
 mp_sync                             81  8.7    7.114    7.886    7.114    7.886
 mp_alltoall_z22v                   193 14.6    5.804    7.721    5.804    7.721
 mp_waitall_1                     62614 13.4    4.793    7.558    4.793    7.558
 mp_cart_sub                         86  9.1    7.063    7.088    7.063    7.088
 integrate_four_center_main           1  6.0    0.000    0.000    0.477    6.645
 integrate_four_center_bin          127  7.0    0.477    6.645    0.477    6.645
 qs_rho_update_rho                   11  5.0    0.000    0.009    6.455    6.499
 multiply_cannon_metrocomm3       16523 11.9    0.028    0.035    2.831    6.495
 calculate_rho_elec                  11  6.0    0.104    1.140    6.386    6.430
 prepare_gapw_den                    11  7.8    0.001    0.013    6.329    6.415
 mp_waitany                        3080 11.3    5.290    6.093    5.290    6.093
 density_rs2pw                       11  7.0    0.001    0.003    5.674    5.906
 sum_up_and_integrate                11  7.8    0.043    0.072    5.364    5.799
 multiply_cannon_multrec          16523 11.9    1.527    5.755    1.938    5.779
 integrate_v_rspace                  11  8.8    0.047    0.476    5.321    5.766
 powell_optimize                1155213  7.0    5.003    5.680    5.003    5.680
 mp_sum_l                          4297 10.9    2.942    5.654    2.942    5.654
 potential_pw2rs                     11  9.8    0.002    0.003    5.170    5.310
 compute_mat_P_omega                  1  7.0    0.000    0.001    5.212    5.214
 rpa_num_int_RPA_matrix_operati      14  7.0    0.001    0.001    5.150    5.158
 multiply_cannon_metrocomm1       16523 11.9    0.014    0.017    0.854    5.109
 yz_to_x                             97 13.2    0.634    0.736    3.841    5.087
 mp2_ri_gpw_compute_in                1  5.0    0.000    0.000    3.927    5.051
 compute_self_energy_im_time_gw     266  9.0    0.001    0.002    4.025    5.033
 xc_rho_set_and_dset_create          10 10.0    0.068    0.094    4.543    5.016
 mp_sum_dm                          105  7.6    3.414    4.872    3.414    4.872
 compute_3c_overlap_int               1  6.0    1.333    1.744    3.646    4.768
 cp_fm_redistribute_start            11  7.8    3.482    3.572    4.402    4.612
 rs_pw_transfer_PW2RS_200            23 10.7    1.599    1.994    3.984    4.394
 calc_pair_dist_radii                 1  6.0    1.703    1.979    3.569    4.214
 rs_pw_transfer_RS2PW_200            23  9.8    1.578    1.870    3.914    4.180
 mp_cart_create                      48  9.1    3.826    3.968    3.826    3.968
 cp_fm_redistribute_end              11  7.8    3.724    3.852    3.725    3.853
 calculate_vxc_atom                  11  7.8    0.021    0.308    3.734    3.832
 x_to_yz                             96 14.1    0.676    0.774    3.273    3.805
 dbcsr_trace_a_b_d                  554  9.9    0.004    0.057    1.916    3.711
 rpa_num_int_im_t_alloc_mat_gw        1  7.0    0.000    0.000    0.163    3.497
 allocate_matrices_gw_im_time         1  8.0    0.000    0.000    0.163    3.497
 get_mat_3c_overl_int_gw              1  9.0    0.001    0.001    0.163    3.496
 put_rho0_on_grid                    11  8.8    0.013    0.045    3.412    3.494
 compute_self_energy_im_time_gw     266  9.0    0.001    0.001    1.671    3.486
 fill_mat_3c_overl_int_gw             1 10.0    0.000    0.000    0.138    3.461
 rpa_num_int_im_t_alloc_mat_24        1  7.0    0.000    0.000    3.335    3.452
 cp_fm_copy_general                   2  8.0    0.000    0.000    3.334    3.452
 cp_fm_start_copy_general             2  9.0    0.000    0.001    3.334    3.452
 mp_allgather_i                       4 10.0    3.333    3.450    3.333    3.450
 GW3c_fill_mat                        1 11.0    0.054    1.701    0.112    3.440
 gaVxcgb_GC                          10  9.0    0.101    3.334    0.101    3.334
 mp_sum_dv                           58  8.3    2.431    3.259    2.431    3.259
 qs_init_subsys                       1  2.0    0.012    0.031    3.231    3.243
 create_dbcsr_matrices_im_time        1  5.0    0.423    0.427    1.697    3.164
 mp_comm_split_direct                 8  6.6    1.570    3.091    1.570    3.091
 integrate_vhg0_rspace               11  7.8    0.113    0.150    2.706    2.921
 compute_mat_P_omega_calc_P          14  8.0    0.000    0.000    2.400    2.841
 compute_3c_overlap_int_put_dbc   19404  7.0    2.147    2.787    2.147    2.787
 qs_env_setup                         1  3.0    0.001    0.007    2.569    2.778
 qs_env_rebuild_pw_env                2  3.5    0.000    0.000    2.565    2.770
 pw_env_rebuild                       1  5.0    0.004    0.018    2.565    2.769
 compute_self_energy_im_time_gw     266  9.0    0.001    0.002    2.658    2.684
 integrate_four_center_load           1  6.0    0.000    0.000    1.082    2.596
 hfx_load_balance                     1  7.0    0.000    0.000    1.082    2.596
 qs_diis_b_step                       9  6.0    0.001    0.019    2.551    2.568
 compute_self_energy_im_time_gw     266  9.0    0.001    0.001    1.927    2.511
 get_l_sq_wghts_cos_tf_w_to_t         1  7.0    1.047    2.454    2.466    2.490
 hfx_load_balance_range               1  8.0    0.002    0.053    0.966    2.480
 calculate_rho_atom                  22  8.8    0.801    2.424    0.801    2.424
 get_l_sq_wghts_sin_tf_t_to_w         1  7.0    0.959    2.367    2.373    2.383
 get_l_sq_wghts_cos_tf_t_to_w         1  7.0    0.877    2.257    2.251    2.317
 -------------------------------------------------------------------------------

 The number of warnings for this run is : 3
 
 -------------------------------------------------------------------------------
  **** **** ******  **  PROGRAM ENDED AT                 2019-05-31 17:15:00.716
 ***** ** ***  *** **   PROGRAM RAN ON                                    tcopt4
 **    ****   ******    PROGRAM RAN BY                                   wilhelm
 ***** **    ** ** **   PROGRAM PROCESS ID                                 82290
  **** **  *******  **  PROGRAM STOPPED IN /data/wilhelm/2_job_test/11_GW100/3_c
                                           alcs/51_SH2
