 DBCSR| CPU Multiplication driver                                           BLAS
 DBCSR| Multrec recursion limit                                              512
 DBCSR| Multiplication stack size                                           1000
 DBCSR| Maximum elements for images                                    UNLIMITED
 DBCSR| Multiplicative factor virtual images                                   1
 DBCSR| Use multiplication densification                                       T
 DBCSR| Multiplication size stacks                                             3
 DBCSR| Number of 3D layers                                               SINGLE
 DBCSR| Use MPI memory allocation                                              T
 DBCSR| Use RMA algorithm                                                      F
 DBCSR| Use Communication thread                                               T
 DBCSR| Communication thread load                                             87


  **** **** ******  **  PROGRAM STARTED AT               2019-05-31 17:56:27.732
 ***** ** ***  *** **   PROGRAM STARTED ON                                tcopt4
 **    ****   ******    PROGRAM STARTED BY                               wilhelm
 ***** **    ** ** **   PROGRAM PROCESS ID                                 87620
  **** **  *******  **  PROGRAM STARTED IN /data/wilhelm/2_job_test/11_GW100/3_c
                                           alcs/65_BN

 CP2K| version string:                    CP2K version 7.0 (Development Version)
 CP2K| source code revision number:                                  git:026fb12
 CP2K| cp2kflags: libint fftw3 libxc pexsi elpa=201705 parallel mpi3 scalapack q
 CP2K|            uip libderiv_max_am1=5 libint_max_am=6
 CP2K| is freely available from                            https://www.cp2k.org/
 CP2K| Program compiled at                         Sat May 11 13:15:02 CEST 2019
 CP2K| Program compiled on                                                tcopt4
 CP2K| Program compiled for                            local_valgrind_March_2019
 CP2K| Data directory path              /data/wilhelm/1_git_repository/cp2k/data
 CP2K| Input file name                                                    GW.inp

 GLOBAL| Force Environment number                                              1
 GLOBAL| Basis set file name                              BASIS_def2_QZVP_RI_ALL
 GLOBAL| Potential file name                                           POTENTIAL
 GLOBAL| MM Potential file name                                     MM_POTENTIAL
 GLOBAL| Coordinate file name                                          65_BN.xyz
 GLOBAL| Method name                                                        CP2K
 GLOBAL| Project name                                                   ALL_ELEC
 GLOBAL| Preferred FFT library                                             FFTW3
 GLOBAL| Preferred diagonalization lib.                                       SL
 GLOBAL| Run type                                                         ENERGY
 GLOBAL| All-to-all communication in single precision                          F
 GLOBAL| FFTs using library dependent lengths                                  F
 GLOBAL| Global print level                                               MEDIUM
 GLOBAL| MPI I/O enabled                                                       T
 GLOBAL| Total number of message passing processes                            40
 GLOBAL| Number of threads for this process                                    1
 GLOBAL| This output is from process                                           0
 GLOBAL| CPU model name :  Intel(R) Xeon(R) CPU E5-2697 v3 @ 2.60GHz

 MEMORY| system memory details [Kb]
 MEMORY|                        rank 0           min           max       average
 MEMORY| MemTotal            396954008     396954008     396954008     396954008
 MEMORY| MemFree             376582740     376582740     376582740     376582740
 MEMORY| Buffers                341668        341668        341668        341668
 MEMORY| Cached               16159812      16159812      16159812      16159812
 MEMORY| Slab                   610668        610668        610668        610668
 MEMORY| SReclaimable           472368        472368        472368        472368
 MEMORY| MemLikelyFree       393556588     393556588     393556588     393556588


 *** Fundamental physical constants (SI units) ***

 *** Literature: B. J. Mohr and B. N. Taylor,
 ***             CODATA recommended values of the fundamental physical
 ***             constants: 2006, Web Version 5.1
 ***             http://physics.nist.gov/constants

 Speed of light in vacuum [m/s]                             2.99792458000000E+08
 Magnetic constant or permeability of vacuum [N/A**2]       1.25663706143592E-06
 Electric constant or permittivity of vacuum [F/m]          8.85418781762039E-12
 Planck constant (h) [J*s]                                  6.62606896000000E-34
 Planck constant (h-bar) [J*s]                              1.05457162825177E-34
 Elementary charge [C]                                      1.60217648700000E-19
 Electron mass [kg]                                         9.10938215000000E-31
 Electron g factor [ ]                                     -2.00231930436220E+00
 Proton mass [kg]                                           1.67262163700000E-27
 Fine-structure constant                                    7.29735253760000E-03
 Rydberg constant [1/m]                                     1.09737315685270E+07
 Avogadro constant [1/mol]                                  6.02214179000000E+23
 Boltzmann constant [J/K]                                   1.38065040000000E-23
 Atomic mass unit [kg]                                      1.66053878200000E-27
 Bohr radius [m]                                            5.29177208590000E-11

 *** Conversion factors ***

 [u] -> [a.u.]                                              1.82288848426455E+03
 [Angstrom] -> [Bohr] = [a.u.]                              1.88972613288564E+00
 [a.u.] = [Bohr] -> [Angstrom]                              5.29177208590000E-01
 [a.u.] -> [s]                                              2.41888432650478E-17
 [a.u.] -> [fs]                                             2.41888432650478E-02
 [a.u.] -> [J]                                              4.35974393937059E-18
 [a.u.] -> [N]                                              8.23872205491840E-08
 [a.u.] -> [K]                                              3.15774647902944E+05
 [a.u.] -> [kJ/mol]                                         2.62549961709828E+03
 [a.u.] -> [kcal/mol]                                       6.27509468713739E+02
 [a.u.] -> [Pa]                                             2.94210107994716E+13
 [a.u.] -> [bar]                                            2.94210107994716E+08
 [a.u.] -> [atm]                                            2.90362800883016E+08
 [a.u.] -> [eV]                                             2.72113838565563E+01
 [a.u.] -> [Hz]                                             6.57968392072181E+15
 [a.u.] -> [1/cm] (wave numbers)                            2.19474631370540E+05
 [a.u./Bohr**2] -> [1/cm]                                   5.14048714338585E+03
 

 CELL_TOP| Volume [angstrom^3]:                                         4096.000
 CELL_TOP| Vector a [angstrom    16.000     0.000     0.000    |a| =      16.000
 CELL_TOP| Vector b [angstrom     0.000    16.000     0.000    |b| =      16.000
 CELL_TOP| Vector c [angstrom     0.000     0.000    16.000    |c| =      16.000
 CELL_TOP| Angle (b,c), alpha [degree]:                                   90.000
 CELL_TOP| Angle (a,c), beta  [degree]:                                   90.000
 CELL_TOP| Angle (a,b), gamma [degree]:                                   90.000
 CELL_TOP| Numerically orthorhombic:                                         YES

 GENERATE|  Preliminary Number of Bonds generated:                             0
 GENERATE|  Achieved consistency in connectivity generation.

 CELL| Volume [angstrom^3]:                                             4096.000
 CELL| Vector a [angstrom]:      16.000     0.000     0.000    |a| =      16.000
 CELL| Vector b [angstrom]:       0.000    16.000     0.000    |b| =      16.000
 CELL| Vector c [angstrom]:       0.000     0.000    16.000    |c| =      16.000
 CELL| Angle (b,c), alpha [degree]:                                       90.000
 CELL| Angle (a,c), beta  [degree]:                                       90.000
 CELL| Angle (a,b), gamma [degree]:                                       90.000
 CELL| Numerically orthorhombic:                                             YES

 CELL_REF| Volume [angstrom^3]:                                         4096.000
 CELL_REF| Vector a [angstrom    16.000     0.000     0.000    |a| =      16.000
 CELL_REF| Vector b [angstrom     0.000    16.000     0.000    |b| =      16.000
 CELL_REF| Vector c [angstrom     0.000     0.000    16.000    |c| =      16.000
 CELL_REF| Angle (b,c), alpha [degree]:                                   90.000
 CELL_REF| Angle (a,c), beta  [degree]:                                   90.000
 CELL_REF| Angle (a,b), gamma [degree]:                                   90.000
 CELL_REF| Numerically orthorhombic:                                         YES

 *******************************************************************************
 *******************************************************************************
 **                                                                           **
 **     #####                         ##              ##                      **
 **    ##   ##            ##          ##              ##                      **
 **   ##     ##                       ##            ######                    **
 **   ##     ##  ##   ##  ##   #####  ##  ##   ####   ##    #####    #####    **
 **   ##     ##  ##   ##  ##  ##      ## ##   ##      ##   ##   ##  ##   ##   **
 **   ##  ## ##  ##   ##  ##  ##      ####     ###    ##   ######   ######    **
 **    ##  ###   ##   ##  ##  ##      ## ##      ##   ##   ##       ##        **
 **     #######   #####   ##   #####  ##  ##  ####    ##    #####   ##        **
 **           ##                                                    ##        **
 **                                                                           **
 **                                                ... make the atoms dance   **
 **                                                                           **
 **            Copyright (C) by CP2K developers group (2000 - 2019)           **
 **                                                                           **
 *******************************************************************************

 DFT| Spin restricted Kohn-Sham (RKS) calculation                            RKS
 DFT| Multiplicity                                                             1
 DFT| Number of spin states                                                    1
 DFT| Charge                                                                   0
 DFT| Self-interaction correction (SIC)                                       NO
 DFT| Cutoffs: density                                              1.000000E-10
 DFT|          gradient                                             1.000000E-10
 DFT|          tau                                                  1.000000E-10
 DFT|          cutoff_smoothing_range                               0.000000E+00
 DFT| XC density smoothing                                                  NONE
 DFT| XC derivatives                                                          PW
 FUNCTIONAL| ROUTINE=NEW
 FUNCTIONAL| PBE:
 FUNCTIONAL| J.P.Perdew, K.Burke, M.Ernzerhof, Phys. Rev. Letter, vol. 77, n 18,
 FUNCTIONAL|  pp. 3865-3868, (1996){spin unpolarized}                           

 QS| Method:                                                                GAPW
 QS| Density plane wave grid type                        NON-SPHERICAL FULLSPACE
 QS| Number of grid levels:                                                    4
 QS| Density cutoff [a.u.]:                                                200.0
 QS| Multi grid cutoff [a.u.]: 1) grid level                               200.0
 QS|                           2) grid level                                66.7
 QS|                           3) grid level                                22.2
 QS|                           4) grid level                                 7.4
 QS| Grid level progression factor:                                          3.0
 QS| Relative density cutoff [a.u.]:                                        25.0
 QS| Consistent realspace mapping and integration 
 QS| Interaction thresholds: eps_pgf_orb:                                1.0E-05
 QS|                         eps_filter_matrix:                          0.0E+00
 QS|                         eps_core_charge:                            1.0E-12
 QS|                         eps_rho_gspace:                             1.0E-10
 QS|                         eps_rho_rspace:                             1.0E-10
 QS|                         eps_gvg_rspace:                             1.0E-05
 QS|                         eps_ppl:                                    1.0E-02
 QS|                         eps_ppnl:                                   1.0E-07
 QS| GAPW|                   eps_fit:                                    1.0E-04
 QS| GAPW|                   eps_iso:                                    1.0E-12
 QS| GAPW|                   eps_svd:                                    1.0E-08
 QS| GAPW|                   eps_cpc:                                    1.0E-10
 QS| GAPW|   atom-r-grid: quadrature:                 GC_LOG                        
 QS| GAPW|      atom-s-grid:  max l :                                          8
 QS| GAPW|      max_l_rho0 :                                                   2


 ATOMIC KIND INFORMATION

  1. Atomic kind: B                                     Number of atoms:       1

     Orbital Basis Set                                                 def2-QZVP

       Number of orbital shell sets:                                          17
       Number of orbital shells:                                              17
       Number of primitive Cartesian functions:                               29
       Number of Cartesian basis functions:                                   72
       Number of spherical basis functions:                                   57
       Norm type:                                                              2

       Normalised Cartesian orbitals:

                        Set   Shell   Orbital            Exponent    Coefficient

                          1       1    1s            46447.667056       0.160652
                                                      6957.688904       0.300649
                                                      1583.442840       0.519457
                                                       448.466010       0.844001
                                                       146.286393       1.287379
                                                        52.784386       1.803207
                                                        20.519396       2.183115
                                                         8.418566       2.086207

                          2       1    1s               36.510018       0.982622
                                                        10.541854       3.867338

                          3       1    1s                3.600409       1.862833

                          4       1    1s                1.561702       0.995655

                          5       1    1s                0.449974       0.391562

                          6       1    1s                0.180752       0.197571

                          7       1    1s                0.071597       0.098646

                          8       1    1px              72.240463       0.711083
                                                        16.807707       0.912991
                                                         5.225941       0.954933
                                                         1.850835       0.878667
                                                         0.722068       0.679455
                          8       1    1py              72.240463       0.711083
                                                        16.807707       0.912991
                                                         5.225941       0.954933
                                                         1.850835       0.878667
                                                         0.722068       0.679455
                          8       1    1pz              72.240463       0.711083
                                                        16.807707       0.912991
                                                         5.225941       0.954933
                                                         1.850835       0.878667
                                                         0.722068       0.679455

                          9       1    1px               0.294910       0.309779
                          9       1    1py               0.294910       0.309779
                          9       1    1pz               0.294910       0.309779

                         10       1    1px               0.122011       0.102788
                         10       1    1py               0.122011       0.102788
                         10       1    1pz               0.122011       0.102788

                         11       1    1px               0.049865       0.033588
                         11       1    1py               0.049865       0.033588
                         11       1    1pz               0.049865       0.033588

                         12       1    1dx2              1.110000       1.975717
                         12       1    1dxy              1.110000       3.422042
                         12       1    1dxz              1.110000       3.422042
                         12       1    1dy2              1.110000       1.975717
                         12       1    1dyz              1.110000       3.422042
                         12       1    1dz2              1.110000       1.975717

                         13       1    1dx2              0.402000       0.334045
                         13       1    1dxy              0.402000       0.578583
                         13       1    1dxz              0.402000       0.578583
                         13       1    1dy2              0.402000       0.334045
                         13       1    1dyz              0.402000       0.578583
                         13       1    1dz2              0.402000       0.334045

                         14       1    1dx2              0.145000       0.056079
                         14       1    1dxy              0.145000       0.097132
                         14       1    1dxz              0.145000       0.097132
                         14       1    1dy2              0.145000       0.056079
                         14       1    1dyz              0.145000       0.097132
                         14       1    1dz2              0.145000       0.056079

                         15       1    1fx3              0.882000       1.109836
                         15       1    1fx2y             0.882000       2.481669
                         15       1    1fx2z             0.882000       2.481669
                         15       1    1fxy2             0.882000       2.481669
                         15       1    1fxyz             0.882000       4.298376
                         15       1    1fxz2             0.882000       2.481669
                         15       1    1fy3              0.882000       1.109836
                         15       1    1fy2z             0.882000       2.481669
                         15       1    1fyz2             0.882000       2.481669
                         15       1    1fz3              0.882000       1.109836

                         16       1    1fx3              0.311000       0.106332
                         16       1    1fx2y             0.311000       0.237766
                         16       1    1fx2z             0.311000       0.237766
                         16       1    1fxy2             0.311000       0.237766
                         16       1    1fxyz             0.311000       0.411823
                         16       1    1fxz2             0.311000       0.237766
                         16       1    1fy3              0.311000       0.106332
                         16       1    1fy2z             0.311000       0.237766
                         16       1    1fyz2             0.311000       0.237766
                         16       1    1fz3              0.311000       0.106332

                         17       1    1gx4              0.673000       0.374522
                         17       1    1gx3y             0.673000       0.990891
                         17       1    1gx3z             0.673000       0.990891
                         17       1    1gx2y2            0.673000       1.279235
                         17       1    1gx2yz            0.673000       2.215700
                         17       1    1gx2z2            0.673000       1.279235
                         17       1    1gxy3             0.673000       0.990891
                         17       1    1gxy2z            0.673000       2.215700
                         17       1    1gxyz2            0.673000       2.215700
                         17       1    1gxz3             0.673000       0.990891
                         17       1    1gy4              0.673000       0.374522
                         17       1    1gy3z             0.673000       0.990891
                         17       1    1gy2z2            0.673000       1.279235
                         17       1    1gyz3             0.673000       0.990891
                         17       1    1gz4              0.673000       0.374522

     RI Auxiliary Basis Set                                                RI-5Z

       Number of orbital shell sets:                                          39
       Number of orbital shells:                                              39
       Number of primitive Cartesian functions:                               39
       Number of Cartesian basis functions:                                  287
       Number of spherical basis functions:                                  193
       Norm type:                                                              2

       Normalised Cartesian orbitals:

                        Set   Shell   Orbital            Exponent    Coefficient

                          1       1    1s              142.715000      29.428106

                          2       1    1s               34.757300      10.202218

                          3       1    1s                9.063320       3.722850

                          4       1    1s                4.124940       2.062877

                          5       1    1s                2.103280       1.244752

                          6       1    1s                1.043310       0.735733

                          7       1    1s                0.591867       0.480926

                          8       1    1s                0.387495       0.350034

                          9       1    1s                0.193579       0.207995

                         10       1    1s                0.100115       0.126848

                         11       1    1px              36.802300     129.206330
                         11       1    1py              36.802300     129.206330
                         11       1    1pz              36.802300     129.206330

                         12       1    1px               9.892560      25.007827
                         12       1    1py               9.892560      25.007827
                         12       1    1pz               9.892560      25.007827

                         13       1    1px               3.548920       6.943211
                         13       1    1py               3.548920       6.943211
                         13       1    1pz               3.548920       6.943211

                         14       1    1px               1.677110       2.720458
                         14       1    1py               1.677110       2.720458
                         14       1    1pz               1.677110       2.720458

                         15       1    1px               0.926420       1.295538
                         15       1    1py               0.926420       1.295538
                         15       1    1pz               0.926420       1.295538

                         16       1    1px               0.445473       0.518760
                         16       1    1py               0.445473       0.518760
                         16       1    1pz               0.445473       0.518760

                         17       1    1px               0.248681       0.250319
                         17       1    1py               0.248681       0.250319
                         17       1    1pz               0.248681       0.250319

                         18       1    1px               0.140195       0.122280
                         18       1    1py               0.140195       0.122280
                         18       1    1pz               0.140195       0.122280

                         19       1    1dx2             10.808500     106.047138
                         19       1    1dxy             10.808500     183.679031
                         19       1    1dxz             10.808500     183.679031
                         19       1    1dy2             10.808500     106.047138
                         19       1    1dyz             10.808500     183.679031
                         19       1    1dz2             10.808500     106.047138

                         20       1    1dx2              4.554610      23.372171
                         20       1    1dxy              4.554610      40.481787
                         20       1    1dxz              4.554610      40.481787
                         20       1    1dy2              4.554610      23.372171
                         20       1    1dyz              4.554610      40.481787
                         20       1    1dz2              4.554610      23.372171

                         21       1    1dx2              2.202870       6.556016
                         21       1    1dxy              2.202870      11.355352
                         21       1    1dxz              2.202870      11.355352
                         21       1    1dy2              2.202870       6.556016
                         21       1    1dyz              2.202870      11.355352
                         21       1    1dz2              2.202870       6.556016

                         22       1    1dx2              1.056650       1.812546
                         22       1    1dxy              1.056650       3.139421
                         22       1    1dxz              1.056650       3.139421
                         22       1    1dy2              1.056650       1.812546
                         22       1    1dyz              1.056650       3.139421
                         22       1    1dz2              1.056650       1.812546

                         23       1    1dx2              0.495164       0.481083
                         23       1    1dxy              0.495164       0.833261
                         23       1    1dxz              0.495164       0.833261
                         23       1    1dy2              0.495164       0.481083
                         23       1    1dyz              0.495164       0.833261
                         23       1    1dz2              0.495164       0.481083

                         24       1    1dx2              0.264649       0.160725
                         24       1    1dxy              0.264649       0.278383
                         24       1    1dxz              0.264649       0.278383
                         24       1    1dy2              0.264649       0.160725
                         24       1    1dyz              0.264649       0.278383
                         24       1    1dz2              0.264649       0.160725

                         25       1    1dx2              0.165073       0.070363
                         25       1    1dxy              0.165073       0.121872
                         25       1    1dxz              0.165073       0.121872
                         25       1    1dy2              0.165073       0.070363
                         25       1    1dyz              0.165073       0.121872
                         25       1    1dz2              0.165073       0.070363

                         26       1    1fx3              4.908970      52.805943
                         26       1    1fx2y             4.908970     118.077678
                         26       1    1fx2z             4.908970     118.077678
                         26       1    1fxy2             4.908970     118.077678
                         26       1    1fxyz             4.908970     204.516537
                         26       1    1fxz2             4.908970     118.077678
                         26       1    1fy3              4.908970      52.805943
                         26       1    1fy2z             4.908970     118.077678
                         26       1    1fyz2             4.908970     118.077678
                         26       1    1fz3              4.908970      52.805943

                         27       1    1fx3              2.483560      11.399149
                         27       1    1fx2y             2.483560      25.489272
                         27       1    1fx2z             2.483560      25.489272
                         27       1    1fxy2             2.483560      25.489272
                         27       1    1fxyz             2.483560      44.148714
                         27       1    1fxz2             2.483560      25.489272
                         27       1    1fy3              2.483560      11.399149
                         27       1    1fy2z             2.483560      25.489272
                         27       1    1fyz2             2.483560      25.489272
                         27       1    1fz3              2.483560      11.399149

                         28       1    1fx3              1.421170       3.246445
                         28       1    1fx2y             1.421170       7.259271
                         28       1    1fx2z             1.421170       7.259271
                         28       1    1fxy2             1.421170       7.259271
                         28       1    1fxyz             1.421170      12.573427
                         28       1    1fxz2             1.421170       7.259271
                         28       1    1fy3              1.421170       3.246445
                         28       1    1fy2z             1.421170       7.259271
                         28       1    1fyz2             1.421170       7.259271
                         28       1    1fz3              1.421170       3.246445

                         29       1    1fx3              0.724300       0.712477
                         29       1    1fx2y             0.724300       1.593148
                         29       1    1fx2z             0.724300       1.593148
                         29       1    1fxy2             0.724300       1.593148
                         29       1    1fxyz             0.724300       2.759413
                         29       1    1fxz2             0.724300       1.593148
                         29       1    1fy3              0.724300       0.712477
                         29       1    1fy2z             0.724300       1.593148
                         29       1    1fyz2             0.724300       1.593148
                         29       1    1fz3              0.724300       0.712477

                         30       1    1fx3              0.398860       0.186123
                         30       1    1fx2y             0.398860       0.416184
                         30       1    1fx2z             0.398860       0.416184
                         30       1    1fxy2             0.398860       0.416184
                         30       1    1fxyz             0.398860       0.720852
                         30       1    1fxz2             0.398860       0.416184
                         30       1    1fy3              0.398860       0.186123
                         30       1    1fy2z             0.398860       0.416184
                         30       1    1fyz2             0.398860       0.416184
                         30       1    1fz3              0.398860       0.186123

                         31       1    1fx3              0.242397       0.060693
                         31       1    1fx2y             0.242397       0.135714
                         31       1    1fx2z             0.242397       0.135714
                         31       1    1fxy2             0.242397       0.135714
                         31       1    1fxyz             0.242397       0.235064
                         31       1    1fxz2             0.242397       0.135714
                         31       1    1fy3              0.242397       0.060693
                         31       1    1fy2z             0.242397       0.135714
                         31       1    1fyz2             0.242397       0.135714
                         31       1    1fz3              0.242397       0.060693

                         32       1    1gx4              3.560170      36.557791
                         32       1    1gx3y             3.560170      96.722824
                         32       1    1gx3z             3.560170      96.722824
                         32       1    1gx2y2            3.560170     124.868629
                         32       1    1gx2yz            3.560170     216.278810
                         32       1    1gx2z2            3.560170     124.868629
                         32       1    1gxy3             3.560170      96.722824
                         32       1    1gxy2z            3.560170     216.278810
                         32       1    1gxyz2            3.560170     216.278810
                         32       1    1gxz3             3.560170      96.722824
                         32       1    1gy4              3.560170      36.557791
                         32       1    1gy3z             3.560170      96.722824
                         32       1    1gy2z2            3.560170     124.868629
                         32       1    1gyz3             3.560170      96.722824
                         32       1    1gz4              3.560170      36.557791

                         33       1    1gx4              1.364190       2.614215
                         33       1    1gx3y             1.364190       6.916563
                         33       1    1gx3z             1.364190       6.916563
                         33       1    1gx2y2            1.364190       8.929244
                         33       1    1gx2yz            1.364190      15.465904
                         33       1    1gx2z2            1.364190       8.929244
                         33       1    1gxy3             1.364190       6.916563
                         33       1    1gxy2z            1.364190      15.465904
                         33       1    1gxyz2            1.364190      15.465904
                         33       1    1gxz3             1.364190       6.916563
                         33       1    1gy4              1.364190       2.614215
                         33       1    1gy3z             1.364190       6.916563
                         33       1    1gy2z2            1.364190       8.929244
                         33       1    1gyz3             1.364190       6.916563
                         33       1    1gz4              1.364190       2.614215

                         34       1    1gx4              0.662307       0.358384
                         34       1    1gx3y             0.662307       0.948195
                         34       1    1gx3z             0.662307       0.948195
                         34       1    1gx2y2            0.662307       1.224114
                         34       1    1gx2yz            0.662307       2.120228
                         34       1    1gx2z2            0.662307       1.224114
                         34       1    1gxy3             0.662307       0.948195
                         34       1    1gxy2z            0.662307       2.120228
                         34       1    1gxyz2            0.662307       2.120228
                         34       1    1gxz3             0.662307       0.948195
                         34       1    1gy4              0.662307       0.358384
                         34       1    1gy3z             0.662307       0.948195
                         34       1    1gy2z2            0.662307       1.224114
                         34       1    1gyz3             0.662307       0.948195
                         34       1    1gz4              0.662307       0.358384

                         35       1    1gx4              0.393770       0.085773
                         35       1    1gx3y             0.393770       0.226935
                         35       1    1gx3z             0.393770       0.226935
                         35       1    1gx2y2            0.393770       0.292972
                         35       1    1gx2yz            0.393770       0.507442
                         35       1    1gx2z2            0.393770       0.292972
                         35       1    1gxy3             0.393770       0.226935
                         35       1    1gxy2z            0.393770       0.507442
                         35       1    1gxyz2            0.393770       0.507442
                         35       1    1gxz3             0.393770       0.226935
                         35       1    1gy4              0.393770       0.085773
                         35       1    1gy3z             0.393770       0.226935
                         35       1    1gy2z2            0.393770       0.292972
                         35       1    1gyz3             0.393770       0.226935
                         35       1    1gz4              0.393770       0.085773

                         36       1    1hx5              1.852370       5.501224
                         36       1    1hx4y             1.852370      16.503672
                         36       1    1hx4z             1.852370      16.503672
                         36       1    1hx3y2            1.852370      25.209775
                         36       1    1hx3yz            1.852370      43.664611
                         36       1    1hx3z2            1.852370      25.209775
                         36       1    1hx2y3            1.852370      25.209775
                         36       1    1hx2y2z           1.852370      56.370770
                         36       1    1hx2yz2           1.852370      56.370770
                         36       1    1hx2z3            1.852370      25.209775
                         36       1    1hxy4             1.852370      16.503672
                         36       1    1hxy3z            1.852370      43.664611
                         36       1    1hxy2z2           1.852370      56.370770
                         36       1    1hxyz3            1.852370      43.664611
                         36       1    1hxz4             1.852370      16.503672
                         36       1    1hy5              1.852370       5.501224
                         36       1    1hy4z             1.852370      16.503672
                         36       1    1hy3z2            1.852370      25.209775
                         36       1    1hy2z3            1.852370      25.209775
                         36       1    1hyz4             1.852370      16.503672
                         36       1    1hz5              1.852370       5.501224

                         37       1    1hx5              0.994333       0.728321
                         37       1    1hx4y             0.994333       2.184962
                         37       1    1hx4z             0.994333       2.184962
                         37       1    1hx3y2            0.994333       3.337585
                         37       1    1hx3yz            0.994333       5.780867
                         37       1    1hx3z2            0.994333       3.337585
                         37       1    1hx2y3            0.994333       3.337585
                         37       1    1hx2y2z           0.994333       7.463067
                         37       1    1hx2yz2           0.994333       7.463067
                         37       1    1hx2z3            0.994333       3.337585
                         37       1    1hxy4             0.994333       2.184962
                         37       1    1hxy3z            0.994333       5.780867
                         37       1    1hxy2z2           0.994333       7.463067
                         37       1    1hxyz3            0.994333       5.780867
                         37       1    1hxz4             0.994333       2.184962
                         37       1    1hy5              0.994333       0.728321
                         37       1    1hy4z             0.994333       2.184962
                         37       1    1hy3z2            0.994333       3.337585
                         37       1    1hy2z3            0.994333       3.337585
                         37       1    1hyz4             0.994333       2.184962
                         37       1    1hz5              0.994333       0.728321

                         38       1    1hx5              0.625900       0.161803
                         38       1    1hx4y             0.625900       0.485408
                         38       1    1hx4z             0.625900       0.485408
                         38       1    1hx3y2            0.625900       0.741472
                         38       1    1hx3yz            0.625900       1.284268
                         38       1    1hx3z2            0.625900       0.741472
                         38       1    1hx2y3            0.625900       0.741472
                         38       1    1hx2y2z           0.625900       1.657982
                         38       1    1hx2yz2           0.625900       1.657982
                         38       1    1hx2z3            0.625900       0.741472
                         38       1    1hxy4             0.625900       0.485408
                         38       1    1hxy3z            0.625900       1.284268
                         38       1    1hxy2z2           0.625900       1.657982
                         38       1    1hxyz3            0.625900       1.284268
                         38       1    1hxz4             0.625900       0.485408
                         38       1    1hy5              0.625900       0.161803
                         38       1    1hy4z             0.625900       0.485408
                         38       1    1hy3z2            0.625900       0.741472
                         38       1    1hy2z3            0.625900       0.741472
                         38       1    1hyz4             0.625900       0.485408
                         38       1    1hz5              0.625900       0.161803

                         39       1    1ix6              1.130180       0.707915
                         39       1    1ix5y             1.130180       2.347890
                         39       1    1ix5z             1.130180       2.347890
                         39       1    1ix4y2            1.130180       4.066665
                         39       1    1ix4yz            1.130180       7.043670
                         39       1    1ix4z2            1.130180       4.066665
                         39       1    1ix3y3            1.130180       4.811742
                         39       1    1ix3y2z           1.130180      10.759383
                         39       1    1ix3yz2           1.130180      10.759383
                         39       1    1ix3z3            1.130180       4.811742
                         39       1    1ix2y4            1.130180       4.066665
                         39       1    1ix2y3z           1.130180      10.759383
                         39       1    1ix2y2z2          1.130180      13.890304
                         39       1    1ix2yz3           1.130180      10.759383
                         39       1    1ix2z4            1.130180       4.066665
                         39       1    1ixy5             1.130180       2.347890
                         39       1    1ixy4z            1.130180       7.043670
                         39       1    1ixy3z2           1.130180      10.759383
                         39       1    1ixy2z3           1.130180      10.759383
                         39       1    1ixyz4            1.130180       7.043670
                         39       1    1ixz5             1.130180       2.347890
                         39       1    1iy6              1.130180       0.707915
                         39       1    1iy5z             1.130180       2.347890
                         39       1    1iy4z2            1.130180       4.066665
                         39       1    1iy3z3            1.130180       4.811742
                         39       1    1iy2z4            1.130180       4.066665
                         39       1    1iyz5             1.130180       2.347890
                         39       1    1iz6              1.130180       0.707915

     The atoms of this atomic kind are PAW atoms (GAPW):
       Hard Gaussian function radius:                                      1.512
       Rho0 radius:                                                        1.512
       Maximum GTO radius used for PAW projector construction:            24.566

     GAPW Soft Basis Set                                          def2-QZVP_soft

       Number of orbital shell sets:                                          17
       Number of orbital shells:                                              17
       Number of primitive Cartesian functions:                               16
       Number of Cartesian basis functions:                                   72
       Number of spherical basis functions:                                   57
       Norm type:                                                              2

       Normalised Cartesian orbitals:

                        Set   Shell   Orbital            Exponent    Coefficient

                          1       1    1s         

                          2       1    1s         

                          3       1    1s                3.600409       1.862833

                          4       1    1s                1.561702       0.995655

                          5       1    1s                0.449974       0.391562

                          6       1    1s                0.180752       0.197571

                          7       1    1s                0.071597       0.098646

                          8       1    1px               1.850835       0.878667
                                                         0.722068       0.679455
                          8       1    1py               1.850835       0.878667
                                                         0.722068       0.679455
                          8       1    1pz               1.850835       0.878667
                                                         0.722068       0.679455

                          9       1    1px               0.294910       0.309779
                          9       1    1py               0.294910       0.309779
                          9       1    1pz               0.294910       0.309779

                         10       1    1px               0.122011       0.102788
                         10       1    1py               0.122011       0.102788
                         10       1    1pz               0.122011       0.102788

                         11       1    1px               0.049865       0.033588
                         11       1    1py               0.049865       0.033588
                         11       1    1pz               0.049865       0.033588

                         12       1    1dx2              1.110000       1.975717
                         12       1    1dxy              1.110000       3.422042
                         12       1    1dxz              1.110000       3.422042
                         12       1    1dy2              1.110000       1.975717
                         12       1    1dyz              1.110000       3.422042
                         12       1    1dz2              1.110000       1.975717

                         13       1    1dx2              0.402000       0.334045
                         13       1    1dxy              0.402000       0.578583
                         13       1    1dxz              0.402000       0.578583
                         13       1    1dy2              0.402000       0.334045
                         13       1    1dyz              0.402000       0.578583
                         13       1    1dz2              0.402000       0.334045

                         14       1    1dx2              0.145000       0.056079
                         14       1    1dxy              0.145000       0.097132
                         14       1    1dxz              0.145000       0.097132
                         14       1    1dy2              0.145000       0.056079
                         14       1    1dyz              0.145000       0.097132
                         14       1    1dz2              0.145000       0.056079

                         15       1    1fx3              0.882000       1.109836
                         15       1    1fx2y             0.882000       2.481669
                         15       1    1fx2z             0.882000       2.481669
                         15       1    1fxy2             0.882000       2.481669
                         15       1    1fxyz             0.882000       4.298376
                         15       1    1fxz2             0.882000       2.481669
                         15       1    1fy3              0.882000       1.109836
                         15       1    1fy2z             0.882000       2.481669
                         15       1    1fyz2             0.882000       2.481669
                         15       1    1fz3              0.882000       1.109836

                         16       1    1fx3              0.311000       0.106332
                         16       1    1fx2y             0.311000       0.237766
                         16       1    1fx2z             0.311000       0.237766
                         16       1    1fxy2             0.311000       0.237766
                         16       1    1fxyz             0.311000       0.411823
                         16       1    1fxz2             0.311000       0.237766
                         16       1    1fy3              0.311000       0.106332
                         16       1    1fy2z             0.311000       0.237766
                         16       1    1fyz2             0.311000       0.237766
                         16       1    1fz3              0.311000       0.106332

                         17       1    1gx4              0.673000       0.374522
                         17       1    1gx3y             0.673000       0.990891
                         17       1    1gx3z             0.673000       0.990891
                         17       1    1gx2y2            0.673000       1.279235
                         17       1    1gx2yz            0.673000       2.215700
                         17       1    1gx2z2            0.673000       1.279235
                         17       1    1gxy3             0.673000       0.990891
                         17       1    1gxy2z            0.673000       2.215700
                         17       1    1gxyz2            0.673000       2.215700
                         17       1    1gxz3             0.673000       0.990891
                         17       1    1gy4              0.673000       0.374522
                         17       1    1gy3z             0.673000       0.990891
                         17       1    1gy2z2            0.673000       1.279235
                         17       1    1gyz3             0.673000       0.990891
                         17       1    1gz4              0.673000       0.374522

     AE Potential information for                                            ALL

       Description:                                       All-electron potential
                                          Krack, Parrinello, PCCP 2, 2105 (2000)

       Gaussian exponent of the core charge distribution:               2.655410
       Electronic configuration (s p d ...):                           4   1   0

  2. Atomic kind: N                                     Number of atoms:       1

     Orbital Basis Set                                                 def2-QZVP

       Number of orbital shell sets:                                          17
       Number of orbital shells:                                              17
       Number of primitive Cartesian functions:                               29
       Number of Cartesian basis functions:                                   72
       Number of spherical basis functions:                                   57
       Norm type:                                                              2

       Normalised Cartesian orbitals:

                        Set   Shell   Orbital            Exponent    Coefficient

                          1       1    1s            90726.889210       0.264461
                                                     13590.528801       0.494937
                                                      3092.988378       0.855170
                                                       875.998764       1.389874
                                                       285.744700       2.121698
                                                       103.119134       2.979703
                                                        40.128557       3.622800
                                                        16.528096       3.451840

                          2       1    1s               69.390961       1.621997
                                                        20.428201       6.338076

                          3       1    1s                7.129259       3.109520

                          4       1    1s                3.132430       1.678113

                          5       1    1s                0.987558       0.706044

                          6       1    1s                0.387657       0.350143

                          7       1    1s                0.149099       0.171008

                          8       1    1px             150.057427      -1.834160
                                                        35.491599      -2.406167
                                                        11.247864      -2.652970
                                                         4.090031      -2.482665
                                                         1.622057      -1.818128
                          8       1    1py             150.057427      -1.834160
                                                        35.491599      -2.406167
                                                        11.247864      -2.652970
                                                         4.090031      -2.482665
                                                         1.622057      -1.818128
                          8       1    1pz             150.057427      -1.834160
                                                        35.491599      -2.406167
                                                        11.247864      -2.652970
                                                         4.090031      -2.482665
                                                         1.622057      -1.818128

                          9       1    1px               0.664423       0.855058
                          9       1    1py               0.664423       0.855058
                          9       1    1pz               0.664423       0.855058

                         10       1    1px               0.270998       0.278706
                         10       1    1py               0.270998       0.278706
                         10       1    1pz               0.270998       0.278706

                         11       1    1px               0.106887       0.087116
                         11       1    1py               0.106887       0.087116
                         11       1    1pz               0.106887       0.087116

                         12       1    1dx2              2.837000      10.207357
                         12       1    1dxy              2.837000      17.679661
                         12       1    1dxz              2.837000      17.679661
                         12       1    1dy2              2.837000      10.207357
                         12       1    1dyz              2.837000      17.679661
                         12       1    1dz2              2.837000      10.207357

                         13       1    1dx2              0.968000       1.554860
                         13       1    1dxy              0.968000       2.693097
                         13       1    1dxz              0.968000       2.693097
                         13       1    1dy2              0.968000       1.554860
                         13       1    1dyz              0.968000       2.693097
                         13       1    1dz2              0.968000       1.554860

                         14       1    1dx2              0.335000       0.242794
                         14       1    1dxy              0.335000       0.420531
                         14       1    1dxz              0.335000       0.420531
                         14       1    1dy2              0.335000       0.242794
                         14       1    1dyz              0.335000       0.420531
                         14       1    1dz2              0.335000       0.242794

                         15       1    1fx3              2.027000       7.217310
                         15       1    1fx2y             2.027000      16.138397
                         15       1    1fx2z             2.027000      16.138397
                         15       1    1fxy2             2.027000      16.138397
                         15       1    1fxyz             2.027000      27.952523
                         15       1    1fxz2             2.027000      16.138397
                         15       1    1fy3              2.027000       7.217310
                         15       1    1fy2z             2.027000      16.138397
                         15       1    1fyz2             2.027000      16.138397
                         15       1    1fz3              2.027000       7.217310

                         16       1    1fx3              0.685000       0.628432
                         16       1    1fx2y             0.685000       1.405216
                         16       1    1fx2z             0.685000       1.405216
                         16       1    1fxy2             0.685000       1.405216
                         16       1    1fxyz             0.685000       2.433906
                         16       1    1fxz2             0.685000       1.405216
                         16       1    1fy3              0.685000       0.628432
                         16       1    1fy2z             0.685000       1.405216
                         16       1    1fyz2             0.685000       1.405216
                         16       1    1fz3              0.685000       0.628432

                         17       1    1gx4              1.427000       2.958703
                         17       1    1gx3y             1.427000       7.827992
                         17       1    1gx3z             1.427000       7.827992
                         17       1    1gx2y2            1.427000      10.105894
                         17       1    1gx2yz            1.427000      17.503922
                         17       1    1gx2z2            1.427000      10.105894
                         17       1    1gxy3             1.427000       7.827992
                         17       1    1gxy2z            1.427000      17.503922
                         17       1    1gxyz2            1.427000      17.503922
                         17       1    1gxz3             1.427000       7.827992
                         17       1    1gy4              1.427000       2.958703
                         17       1    1gy3z             1.427000       7.827992
                         17       1    1gy2z2            1.427000      10.105894
                         17       1    1gyz3             1.427000       7.827992
                         17       1    1gz4              1.427000       2.958703

     RI Auxiliary Basis Set                                                RI-5Z

       Number of orbital shell sets:                                          39
       Number of orbital shells:                                              39
       Number of primitive Cartesian functions:                               39
       Number of Cartesian basis functions:                                  287
       Number of spherical basis functions:                                  193
       Norm type:                                                              2

       Normalised Cartesian orbitals:

                        Set   Shell   Orbital            Exponent    Coefficient

                          1       1    1s              330.814000      55.283815

                          2       1    1s               72.692500      17.743010

                          3       1    1s               18.515300       6.361480

                          4       1    1s                8.569100       3.569534

                          5       1    1s                3.809660       1.943456

                          6       1    1s                2.248340       1.308599

                          7       1    1s                1.312410       0.873901

                          8       1    1s                0.758637       0.579343

                          9       1    1s                0.378879       0.344180

                         10       1    1s                0.175888       0.193570

                         11       1    1px              66.987000     273.167010
                         11       1    1py              66.987000     273.167010
                         11       1    1pz              66.987000     273.167010

                         12       1    1px              18.749800      55.614225
                         12       1    1py              18.749800      55.614225
                         12       1    1pz              18.749800      55.614225

                         13       1    1px               7.480640      17.634515
                         13       1    1py               7.480640      17.634515
                         13       1    1pz               7.480640      17.634515

                         14       1    1px               3.761240       7.466274
                         14       1    1py               3.761240       7.466274
                         14       1    1pz               3.761240       7.466274

                         15       1    1px               2.075610       3.551177
                         15       1    1py               2.075610       3.551177
                         15       1    1pz               2.075610       3.551177

                         16       1    1px               0.990652       1.408775
                         16       1    1py               0.990652       1.408775
                         16       1    1pz               0.990652       1.408775

                         17       1    1px               0.519429       0.628562
                         17       1    1py               0.519429       0.628562
                         17       1    1pz               0.519429       0.628562

                         18       1    1px               0.311991       0.332367
                         18       1    1py               0.311991       0.332367
                         18       1    1pz               0.311991       0.332367

                         19       1    1dx2             17.120900     237.181597
                         19       1    1dxy             17.120900     410.810577
                         19       1    1dxz             17.120900     410.810577
                         19       1    1dy2             17.120900     237.181597
                         19       1    1dyz             17.120900     410.810577
                         19       1    1dz2             17.120900     237.181597

                         20       1    1dx2              5.810520      35.791979
                         20       1    1dxy              5.810520      61.993525
                         20       1    1dxz              5.810520      61.993525
                         20       1    1dy2              5.810520      35.791979
                         20       1    1dyz              5.810520      61.993525
                         20       1    1dz2              5.810520      35.791979

                         21       1    1dx2              3.550630      15.116246
                         21       1    1dxy              3.550630      26.182105
                         21       1    1dxz              3.550630      26.182105
                         21       1    1dy2              3.550630      15.116246
                         21       1    1dyz              3.550630      26.182105
                         21       1    1dz2              3.550630      15.116246

                         22       1    1dx2              2.262180       6.868027
                         22       1    1dxy              2.262180      11.895771
                         22       1    1dxz              2.262180      11.895771
                         22       1    1dy2              2.262180       6.868027
                         22       1    1dyz              2.262180      11.895771
                         22       1    1dz2              2.262180       6.868027

                         23       1    1dx2              1.105370       1.961317
                         23       1    1dxy              1.105370       3.397101
                         23       1    1dxz              1.105370       3.397101
                         23       1    1dy2              1.105370       1.961317
                         23       1    1dyz              1.105370       3.397101
                         23       1    1dz2              1.105370       1.961317

                         24       1    1dx2              0.568580       0.612766
                         24       1    1dxy              0.568580       1.061342
                         24       1    1dxz              0.568580       1.061342
                         24       1    1dy2              0.568580       0.612766
                         24       1    1dyz              0.568580       1.061342
                         24       1    1dz2              0.568580       0.612766

                         25       1    1dx2              0.281938       0.179547
                         25       1    1dxy              0.281938       0.310985
                         25       1    1dxz              0.281938       0.310985
                         25       1    1dy2              0.281938       0.179547
                         25       1    1dyz              0.281938       0.310985
                         25       1    1dz2              0.281938       0.179547

                         26       1    1fx3             10.195600     273.453335
                         26       1    1fx2y            10.195600     611.460245
                         26       1    1fx2z            10.195600     611.460245
                         26       1    1fxy2            10.195600     611.460245
                         26       1    1fxyz            10.195600    1059.080212
                         26       1    1fxz2            10.195600     611.460245
                         26       1    1fy3             10.195600     273.453335
                         26       1    1fy2z            10.195600     611.460245
                         26       1    1fyz2            10.195600     611.460245
                         26       1    1fz3             10.195600     273.453335

                         27       1    1fx3              4.611490      45.877243
                         27       1    1fx2y             4.611490     102.584634
                         27       1    1fx2z             4.611490     102.584634
                         27       1    1fxy2             4.611490     102.584634
                         27       1    1fxyz             4.611490     177.681798
                         27       1    1fxz2             4.611490     102.584634
                         27       1    1fy3              4.611490      45.877243
                         27       1    1fy2z             4.611490     102.584634
                         27       1    1fyz2             4.611490     102.584634
                         27       1    1fz3              4.611490      45.877243

                         28       1    1fx3              2.818460      15.152391
                         28       1    1fx2y             2.818460      33.881776
                         28       1    1fx2z             2.818460      33.881776
                         28       1    1fxy2             2.818460      33.881776
                         28       1    1fxyz             2.818460      58.684958
                         28       1    1fxz2             2.818460      33.881776
                         28       1    1fy3              2.818460      15.152391
                         28       1    1fy2z             2.818460      33.881776
                         28       1    1fyz2             2.818460      33.881776
                         28       1    1fz3              2.818460      15.152391

                         29       1    1fx3              1.544330       3.913990
                         29       1    1fx2y             1.544330       8.751947
                         29       1    1fx2z             1.544330       8.751947
                         29       1    1fxy2             1.544330       8.751947
                         29       1    1fxyz             1.544330      15.158817
                         29       1    1fxz2             1.544330       8.751947
                         29       1    1fy3              1.544330       3.913990
                         29       1    1fy2z             1.544330       8.751947
                         29       1    1fyz2             1.544330       8.751947
                         29       1    1fz3              1.544330       3.913990

                         30       1    1fx3              0.895075       1.147197
                         30       1    1fx2y             0.895075       2.565211
                         30       1    1fx2z             0.895075       2.565211
                         30       1    1fxy2             0.895075       2.565211
                         30       1    1fxyz             0.895075       4.443076
                         30       1    1fxz2             0.895075       2.565211
                         30       1    1fy3              0.895075       1.147197
                         30       1    1fy2z             0.895075       2.565211
                         30       1    1fyz2             0.895075       2.565211
                         30       1    1fz3              0.895075       1.147197

                         31       1    1fx3              0.470440       0.269829
                         31       1    1fx2y             0.470440       0.603356
                         31       1    1fx2z             0.470440       0.603356
                         31       1    1fxy2             0.470440       0.603356
                         31       1    1fxyz             0.470440       1.045044
                         31       1    1fxz2             0.470440       0.603356
                         31       1    1fy3              0.470440       0.269829
                         31       1    1fy2z             0.470440       0.603356
                         31       1    1fyz2             0.470440       0.603356
                         31       1    1fz3              0.470440       0.269829

                         32       1    1gx4              5.478920     119.631780
                         32       1    1gx3y             5.478920     316.515938
                         32       1    1gx3z             5.478920     316.515938
                         32       1    1gx2y2            5.478920     408.620318
                         32       1    1gx2yz            5.478920     707.751152
                         32       1    1gx2z2            5.478920     408.620318
                         32       1    1gxy3             5.478920     316.515938
                         32       1    1gxy2z            5.478920     707.751152
                         32       1    1gxyz2            5.478920     707.751152
                         32       1    1gxz3             5.478920     316.515938
                         32       1    1gy4              5.478920     119.631780
                         32       1    1gy3z             5.478920     316.515938
                         32       1    1gy2z2            5.478920     408.620318
                         32       1    1gyz3             5.478920     316.515938
                         32       1    1gz4              5.478920     119.631780

                         33       1    1gx4              3.053470      23.967238
                         33       1    1gx3y             3.053470      63.411351
                         33       1    1gx3z             3.053470      63.411351
                         33       1    1gx2y2            3.053470      81.863702
                         33       1    1gx2yz            3.053470     141.792090
                         33       1    1gx2z2            3.053470      81.863702
                         33       1    1gxy3             3.053470      63.411351
                         33       1    1gxy2z            3.053470     141.792090
                         33       1    1gxyz2            3.053470     141.792090
                         33       1    1gxz3             3.053470      63.411351
                         33       1    1gy4              3.053470      23.967238
                         33       1    1gy3z             3.053470      63.411351
                         33       1    1gy2z2            3.053470      81.863702
                         33       1    1gyz3             3.053470      63.411351
                         33       1    1gz4              3.053470      23.967238

                         34       1    1gx4              1.482770       3.287671
                         34       1    1gx3y             1.482770       8.698360
                         34       1    1gx3z             1.482770       8.698360
                         34       1    1gx2y2            1.482770      11.229534
                         34       1    1gx2yz            1.482770      19.450124
                         34       1    1gx2z2            1.482770      11.229534
                         34       1    1gxy3             1.482770       8.698360
                         34       1    1gxy2z            1.482770      19.450124
                         34       1    1gxyz2            1.482770      19.450124
                         34       1    1gxz3             1.482770       8.698360
                         34       1    1gy4              1.482770       3.287671
                         34       1    1gy3z             1.482770       8.698360
                         34       1    1gy2z2            1.482770      11.229534
                         34       1    1gyz3             1.482770       8.698360
                         34       1    1gz4              1.482770       3.287671

                         35       1    1gx4              0.844875       0.700027
                         35       1    1gx3y             0.844875       1.852097
                         35       1    1gx3z             0.844875       1.852097
                         35       1    1gx2y2            0.844875       2.391047
                         35       1    1gx2yz            0.844875       4.141415
                         35       1    1gx2z2            0.844875       2.391047
                         35       1    1gxy3             0.844875       1.852097
                         35       1    1gxy2z            0.844875       4.141415
                         35       1    1gxyz2            0.844875       4.141415
                         35       1    1gxz3             0.844875       1.852097
                         35       1    1gy4              0.844875       0.700027
                         35       1    1gy3z             0.844875       1.852097
                         35       1    1gy2z2            0.844875       2.391047
                         35       1    1gyz3             0.844875       1.852097
                         35       1    1gz4              0.844875       0.700027

                         36       1    1hx5              3.904570      62.080772
                         36       1    1hx4y             3.904570     186.242316
                         36       1    1hx4z             3.904570     186.242316
                         36       1    1hx3y2            3.904570     284.489837
                         36       1    1hx3yz            3.904570     492.750852
                         36       1    1hx3z2            3.904570     284.489837
                         36       1    1hx2y3            3.904570     284.489837
                         36       1    1hx2y2z           3.904570     636.138614
                         36       1    1hx2yz2           3.904570     636.138614
                         36       1    1hx2z3            3.904570     284.489837
                         36       1    1hxy4             3.904570     186.242316
                         36       1    1hxy3z            3.904570     492.750852
                         36       1    1hxy2z2           3.904570     636.138614
                         36       1    1hxyz3            3.904570     492.750852
                         36       1    1hxz4             3.904570     186.242316
                         36       1    1hy5              3.904570      62.080772
                         36       1    1hy4z             3.904570     186.242316
                         36       1    1hy3z2            3.904570     284.489837
[...]


 SCF WAVEFUNCTION OPTIMIZATION

  Step     Update method      Time    Convergence         Total energy    Change
  ------------------------------------------------------------------------------
     1 P_Mix/Diag. 0.40E+00    1.9     0.54683399       -79.4762185876 -7.95E+01
     2 P_Mix/Diag. 0.40E+00    1.9     0.29233874       -79.3780703663  9.81E-02
     3 P_Mix/Diag. 0.40E+00    1.9     0.45959416       -79.1388687156  2.39E-01
     4 P_Mix/Diag. 0.40E+00    2.0     0.26959806       -79.1443423065 -5.47E-03
     5 P_Mix/Diag. 0.40E+00    2.0     0.38499638       -78.9739571037  1.70E-01
     6 P_Mix/Diag. 0.40E+00    1.9     0.32174271       -79.0561378538 -8.22E-02
     7 P_Mix/Diag. 0.40E+00    1.9     0.35784129       -78.9342258625  1.22E-01
     8 P_Mix/Diag. 0.40E+00    2.0     0.33771653       -79.0322312209 -9.80E-02
     9 P_Mix/Diag. 0.40E+00    1.9     0.34962351       -78.9193757379  1.13E-01
    10 P_Mix/Diag. 0.40E+00    1.9     0.34290088       -79.0234260511 -1.04E-01
    11 P_Mix/Diag. 0.40E+00    2.0     0.34684640       -78.9141594468  1.09E-01
    12 P_Mix/Diag. 0.40E+00    2.0     0.34462298       -79.0203083978 -1.06E-01
    13 P_Mix/Diag. 0.40E+00    2.1     0.34592745       -78.9122832789  1.08E-01
    14 P_Mix/Diag. 0.40E+00    2.1     0.34519543       -79.0191861993 -1.07E-01
    15 P_Mix/Diag. 0.40E+00    2.2     0.34562350       -78.9116084149  1.08E-01
    16 P_Mix/Diag. 0.40E+00    2.3     0.34538483       -79.0187822302 -1.07E-01
    17 P_Mix/Diag. 0.40E+00    2.4     0.34552386       -78.9113652983  1.07E-01
    18 P_Mix/Diag. 0.40E+00    2.3     0.34544696       -79.0186366584 -1.07E-01
    19 P_Mix/Diag. 0.40E+00    2.4     0.34549153       -78.9112776700  1.07E-01
    20 P_Mix/Diag. 0.40E+00    2.4     0.34546711       -79.0185841812 -1.07E-01
    21 P_Mix/Diag. 0.40E+00    2.4     0.34548116       -78.9112460714  1.07E-01
    22 P_Mix/Diag. 0.40E+00    2.5     0.34547355       -79.0185652573 -1.07E-01
    23 P_Mix/Diag. 0.40E+00    2.4     0.34547789       -78.9112346726  1.07E-01
    24 P_Mix/Diag. 0.40E+00    2.4     0.34547557       -79.0185584309 -1.07E-01
    25 P_Mix/Diag. 0.40E+00    2.3     0.34547688       -78.9112305590  1.07E-01
    26 P_Mix/Diag. 0.40E+00    2.4     0.34547619       -79.0185559676 -1.07E-01
    27 P_Mix/Diag. 0.40E+00    2.5     0.34547657       -78.9112290738  1.07E-01
    28 P_Mix/Diag. 0.40E+00    2.5     0.34547637       -79.0185550784 -1.07E-01
    29 P_Mix/Diag. 0.40E+00    2.5     0.34547648       -78.9112285373  1.07E-01
    30 P_Mix/Diag. 0.40E+00    2.6     0.34547643       -79.0185547573 -1.07E-01
    31 P_Mix/Diag. 0.40E+00    2.6     0.34547645       -78.9112283434  1.07E-01
    32 P_Mix/Diag. 0.40E+00    2.6     0.34547644       -79.0185546412 -1.07E-01
    33 P_Mix/Diag. 0.40E+00    2.6     0.34547645       -78.9112282733  1.07E-01
    34 P_Mix/Diag. 0.40E+00    2.4     0.34547644       -79.0185545993 -1.07E-01
    35 P_Mix/Diag. 0.40E+00    2.5     0.34547644       -78.9112282479  1.07E-01
    36 P_Mix/Diag. 0.40E+00    2.4     0.34547644       -79.0185545841 -1.07E-01
    37 P_Mix/Diag. 0.40E+00    2.3     0.34547644       -78.9112282387  1.07E-01
    38 P_Mix/Diag. 0.40E+00    2.2     0.34547644       -79.0185545786 -1.07E-01
    39 P_Mix/Diag. 0.40E+00    2.2     0.34547644       -78.9112282354  1.07E-01
    40 P_Mix/Diag. 0.40E+00    2.2     0.34547644       -79.0185545766 -1.07E-01
    41 P_Mix/Diag. 0.40E+00    2.1     0.34547644       -78.9112282342  1.07E-01
    42 P_Mix/Diag. 0.40E+00    2.1     0.34547644       -79.0185545759 -1.07E-01
    43 P_Mix/Diag. 0.40E+00    2.2     0.34547644       -78.9112282338  1.07E-01
    44 P_Mix/Diag. 0.40E+00    2.3     0.34547644       -79.0185545756 -1.07E-01
    45 P_Mix/Diag. 0.40E+00    2.2     0.34547644       -78.9112282336  1.07E-01
    46 P_Mix/Diag. 0.40E+00    2.3     0.34547644       -79.0185545755 -1.07E-01
    47 P_Mix/Diag. 0.40E+00    2.4     0.34547644       -78.9112282335  1.07E-01
    48 P_Mix/Diag. 0.40E+00    2.3     0.34547644       -79.0185545755 -1.07E-01
    49 P_Mix/Diag. 0.40E+00    2.4     0.34547644       -78.9112282335  1.07E-01
    50 P_Mix/Diag. 0.40E+00    2.5     0.34547644       -79.0185545755 -1.07E-01
    51 P_Mix/Diag. 0.40E+00    2.5     0.34547644       -78.9112282335  1.07E-01
    52 P_Mix/Diag. 0.40E+00    2.5     0.34547644       -79.0185545755 -1.07E-01
    53 P_Mix/Diag. 0.40E+00    2.5     0.34547644       -78.9112282335  1.07E-01
    54 P_Mix/Diag. 0.40E+00    2.6     0.34547644       -79.0185545755 -1.07E-01
    55 P_Mix/Diag. 0.40E+00    2.5     0.34547644       -78.9112282335  1.07E-01
    56 P_Mix/Diag. 0.40E+00    2.6     0.34547644       -79.0185545755 -1.07E-01
    57 P_Mix/Diag. 0.40E+00    2.4     0.34547644       -78.9112282335  1.07E-01
    58 P_Mix/Diag. 0.40E+00    2.3     0.34547644       -79.0185545755 -1.07E-01
    59 P_Mix/Diag. 0.40E+00    2.3     0.34547644       -78.9112282335  1.07E-01
    60 P_Mix/Diag. 0.40E+00    2.3     0.34547644       -79.0185545755 -1.07E-01
    61 P_Mix/Diag. 0.40E+00    2.3     0.34547644       -78.9112282335  1.07E-01
    62 P_Mix/Diag. 0.40E+00    2.3     0.34547644       -79.0185545755 -1.07E-01
    63 P_Mix/Diag. 0.40E+00    2.3     0.34547644       -78.9112282335  1.07E-01
    64 P_Mix/Diag. 0.40E+00    2.4     0.34547644       -79.0185545755 -1.07E-01
    65 P_Mix/Diag. 0.40E+00    2.3     0.34547644       -78.9112282335  1.07E-01
    66 P_Mix/Diag. 0.40E+00    2.5     0.34547644       -79.0185545755 -1.07E-01
    67 P_Mix/Diag. 0.40E+00    2.3     0.34547644       -78.9112282335  1.07E-01
    68 P_Mix/Diag. 0.40E+00    2.2     0.34547644       -79.0185545755 -1.07E-01
    69 P_Mix/Diag. 0.40E+00    2.1     0.34547644       -78.9112282335  1.07E-01
    70 P_Mix/Diag. 0.40E+00    2.3     0.34547644       -79.0185545755 -1.07E-01
    71 P_Mix/Diag. 0.40E+00    2.2     0.34547644       -78.9112282335  1.07E-01
    72 P_Mix/Diag. 0.40E+00    2.3     0.34547644       -79.0185545755 -1.07E-01
    73 P_Mix/Diag. 0.40E+00    2.4     0.34547644       -78.9112282335  1.07E-01
    74 P_Mix/Diag. 0.40E+00    2.4     0.34547644       -79.0185545755 -1.07E-01
    75 P_Mix/Diag. 0.40E+00    2.3     0.34547644       -78.9112282335  1.07E-01
    76 P_Mix/Diag. 0.40E+00    2.4     0.34547644       -79.0185545755 -1.07E-01
    77 P_Mix/Diag. 0.40E+00    2.3     0.34547644       -78.9112282335  1.07E-01
    78 P_Mix/Diag. 0.40E+00    2.3     0.34547644       -79.0185545755 -1.07E-01
    79 P_Mix/Diag. 0.40E+00    2.4     0.34547644       -78.9112282335  1.07E-01
    80 P_Mix/Diag. 0.40E+00    2.4     0.34547644       -79.0185545755 -1.07E-01
    81 P_Mix/Diag. 0.40E+00    2.5     0.34547644       -78.9112282335  1.07E-01
    82 P_Mix/Diag. 0.40E+00    2.4     0.34547644       -79.0185545755 -1.07E-01
    83 P_Mix/Diag. 0.40E+00    2.4     0.34547644       -78.9112282335  1.07E-01
    84 P_Mix/Diag. 0.40E+00    2.3     0.34547644       -79.0185545755 -1.07E-01
    85 P_Mix/Diag. 0.40E+00    2.4     0.34547644       -78.9112282335  1.07E-01
    86 P_Mix/Diag. 0.40E+00    2.4     0.34547644       -79.0185545755 -1.07E-01
    87 P_Mix/Diag. 0.40E+00    2.4     0.34547644       -78.9112282335  1.07E-01
    88 P_Mix/Diag. 0.40E+00    2.4     0.34547644       -79.0185545755 -1.07E-01
    89 P_Mix/Diag. 0.40E+00    2.4     0.34547644       -78.9112282335  1.07E-01
    90 P_Mix/Diag. 0.40E+00    2.4     0.34547644       -79.0185545755 -1.07E-01
    91 P_Mix/Diag. 0.40E+00    2.5     0.34547644       -78.9112282335  1.07E-01
    92 P_Mix/Diag. 0.40E+00    2.5     0.34547644       -79.0185545755 -1.07E-01
    93 P_Mix/Diag. 0.40E+00    2.4     0.34547644       -78.9112282335  1.07E-01
    94 P_Mix/Diag. 0.40E+00    2.4     0.34547644       -79.0185545755 -1.07E-01
    95 P_Mix/Diag. 0.40E+00    2.5     0.34547644       -78.9112282335  1.07E-01
    96 P_Mix/Diag. 0.40E+00    2.5     0.34547644       -79.0185545755 -1.07E-01
    97 P_Mix/Diag. 0.40E+00    2.5     0.34547644       -78.9112282335  1.07E-01
    98 P_Mix/Diag. 0.40E+00    2.4     0.34547644       -79.0185545755 -1.07E-01
    99 P_Mix/Diag. 0.40E+00    2.5     0.34547644       -78.9112282335  1.07E-01
   100 P_Mix/Diag. 0.40E+00    2.5     0.34547644       -79.0185545755 -1.07E-01
   101 P_Mix/Diag. 0.40E+00    2.5     0.34547644       -78.9112282335  1.07E-01
   102 P_Mix/Diag. 0.40E+00    2.4     0.34547644       -79.0185545755 -1.07E-01
   103 P_Mix/Diag. 0.40E+00    2.5     0.34547644       -78.9112282335  1.07E-01
   104 P_Mix/Diag. 0.40E+00    2.5     0.34547644       -79.0185545755 -1.07E-01
   105 P_Mix/Diag. 0.40E+00    2.4     0.34547644       -78.9112282335  1.07E-01
   106 P_Mix/Diag. 0.40E+00    2.4     0.34547644       -79.0185545755 -1.07E-01
   107 P_Mix/Diag. 0.40E+00    2.4     0.34547644       -78.9112282335  1.07E-01
   108 P_Mix/Diag. 0.40E+00    2.5     0.34547644       -79.0185545755 -1.07E-01
   109 P_Mix/Diag. 0.40E+00    2.5     0.34547644       -78.9112282335  1.07E-01
   110 P_Mix/Diag. 0.40E+00    2.6     0.34547644       -79.0185545755 -1.07E-01
   111 P_Mix/Diag. 0.40E+00    2.5     0.34547644       -78.9112282335  1.07E-01
   112 P_Mix/Diag. 0.40E+00    2.5     0.34547644       -79.0185545755 -1.07E-01
   113 P_Mix/Diag. 0.40E+00    2.5     0.34547644       -78.9112282335  1.07E-01
   114 P_Mix/Diag. 0.40E+00    2.4     0.34547644       -79.0185545755 -1.07E-01
   115 P_Mix/Diag. 0.40E+00    2.4     0.34547644       -78.9112282335  1.07E-01
   116 P_Mix/Diag. 0.40E+00    2.5     0.34547644       -79.0185545755 -1.07E-01
   117 P_Mix/Diag. 0.40E+00    2.5     0.34547644       -78.9112282335  1.07E-01
   118 P_Mix/Diag. 0.40E+00    2.4     0.34547644       -79.0185545755 -1.07E-01
   119 P_Mix/Diag. 0.40E+00    2.4     0.34547644       -78.9112282335  1.07E-01
   120 P_Mix/Diag. 0.40E+00    2.4     0.34547644       -79.0185545755 -1.07E-01
   121 P_Mix/Diag. 0.40E+00    2.4     0.34547644       -78.9112282335  1.07E-01
   122 P_Mix/Diag. 0.40E+00    2.5     0.34547644       -79.0185545755 -1.07E-01
   123 P_Mix/Diag. 0.40E+00    2.6     0.34547644       -78.9112282335  1.07E-01
   124 P_Mix/Diag. 0.40E+00    2.6     0.34547644       -79.0185545755 -1.07E-01
   125 P_Mix/Diag. 0.40E+00    2.5     0.34547644       -78.9112282335  1.07E-01
   126 P_Mix/Diag. 0.40E+00    2.5     0.34547644       -79.0185545755 -1.07E-01
   127 P_Mix/Diag. 0.40E+00    2.6     0.34547644       -78.9112282335  1.07E-01
   128 P_Mix/Diag. 0.40E+00    2.6     0.34547644       -79.0185545755 -1.07E-01
   129 P_Mix/Diag. 0.40E+00    2.7     0.34547644       -78.9112282335  1.07E-01
   130 P_Mix/Diag. 0.40E+00    2.6     0.34547644       -79.0185545755 -1.07E-01
   131 P_Mix/Diag. 0.40E+00    2.5     0.34547644       -78.9112282335  1.07E-01
   132 P_Mix/Diag. 0.40E+00    2.6     0.34547644       -79.0185545755 -1.07E-01
   133 P_Mix/Diag. 0.40E+00    2.6     0.34547644       -78.9112282335  1.07E-01
   134 P_Mix/Diag. 0.40E+00    2.5     0.34547644       -79.0185545755 -1.07E-01
   135 P_Mix/Diag. 0.40E+00    2.4     0.34547644       -78.9112282335  1.07E-01
   136 P_Mix/Diag. 0.40E+00    2.4     0.34547644       -79.0185545755 -1.07E-01
   137 P_Mix/Diag. 0.40E+00    2.6     0.34547644       -78.9112282335  1.07E-01
   138 P_Mix/Diag. 0.40E+00    2.6     0.34547644       -79.0185545755 -1.07E-01
   139 P_Mix/Diag. 0.40E+00    2.7     0.34547644       -78.9112282335  1.07E-01
   140 P_Mix/Diag. 0.40E+00    2.7     0.34547644       -79.0185545755 -1.07E-01
   141 P_Mix/Diag. 0.40E+00    2.6     0.34547644       -78.9112282335  1.07E-01
   142 P_Mix/Diag. 0.40E+00    2.7     0.34547644       -79.0185545755 -1.07E-01
   143 P_Mix/Diag. 0.40E+00    2.6     0.34547644       -78.9112282335  1.07E-01
   144 P_Mix/Diag. 0.40E+00    2.6     0.34547644       -79.0185545755 -1.07E-01
   145 P_Mix/Diag. 0.40E+00    2.5     0.34547644       -78.9112282335  1.07E-01
   146 P_Mix/Diag. 0.40E+00    2.4     0.34547644       -79.0185545755 -1.07E-01
   147 P_Mix/Diag. 0.40E+00    2.3     0.34547644       -78.9112282335  1.07E-01
   148 P_Mix/Diag. 0.40E+00    2.4     0.34547644       -79.0185545755 -1.07E-01
   149 P_Mix/Diag. 0.40E+00    2.3     0.34547644       -78.9112282335  1.07E-01
   150 P_Mix/Diag. 0.40E+00    2.4     0.34547644       -79.0185545755 -1.07E-01
   151 P_Mix/Diag. 0.40E+00    2.4     0.34547644       -78.9112282335  1.07E-01
   152 P_Mix/Diag. 0.40E+00    2.4     0.34547644       -79.0185545755 -1.07E-01
   153 P_Mix/Diag. 0.40E+00    2.3     0.34547644       -78.9112282335  1.07E-01
   154 P_Mix/Diag. 0.40E+00    2.3     0.34547644       -79.0185545755 -1.07E-01
   155 P_Mix/Diag. 0.40E+00    2.2     0.34547644       -78.9112282335  1.07E-01
   156 P_Mix/Diag. 0.40E+00    2.3     0.34547644       -79.0185545755 -1.07E-01
   157 P_Mix/Diag. 0.40E+00    2.2     0.34547644       -78.9112282335  1.07E-01
   158 P_Mix/Diag. 0.40E+00    2.3     0.34547644       -79.0185545755 -1.07E-01
   159 P_Mix/Diag. 0.40E+00    2.2     0.34547644       -78.9112282335  1.07E-01
   160 P_Mix/Diag. 0.40E+00    2.3     0.34547644       -79.0185545755 -1.07E-01
   161 P_Mix/Diag. 0.40E+00    2.3     0.34547644       -78.9112282335  1.07E-01
   162 P_Mix/Diag. 0.40E+00    2.2     0.34547644       -79.0185545755 -1.07E-01
   163 P_Mix/Diag. 0.40E+00    2.2     0.34547644       -78.9112282335  1.07E-01
   164 P_Mix/Diag. 0.40E+00    2.3     0.34547644       -79.0185545755 -1.07E-01
   165 P_Mix/Diag. 0.40E+00    2.2     0.34547644       -78.9112282335  1.07E-01
   166 P_Mix/Diag. 0.40E+00    2.2     0.34547644       -79.0185545755 -1.07E-01
   167 P_Mix/Diag. 0.40E+00    2.3     0.34547644       -78.9112282335  1.07E-01
   168 P_Mix/Diag. 0.40E+00    2.3     0.34547644       -79.0185545755 -1.07E-01
   169 P_Mix/Diag. 0.40E+00    2.4     0.34547644       -78.9112282335  1.07E-01
   170 P_Mix/Diag. 0.40E+00    2.3     0.34547644       -79.0185545755 -1.07E-01
   171 P_Mix/Diag. 0.40E+00    2.4     0.34547644       -78.9112282335  1.07E-01
   172 P_Mix/Diag. 0.40E+00    2.3     0.34547644       -79.0185545755 -1.07E-01
   173 P_Mix/Diag. 0.40E+00    2.1     0.34547644       -78.9112282335  1.07E-01
   174 P_Mix/Diag. 0.40E+00    2.1     0.34547644       -79.0185545755 -1.07E-01
   175 P_Mix/Diag. 0.40E+00    2.2     0.34547644       -78.9112282335  1.07E-01
   176 P_Mix/Diag. 0.40E+00    2.1     0.34547644       -79.0185545755 -1.07E-01
   177 P_Mix/Diag. 0.40E+00    2.1     0.34547644       -78.9112282335  1.07E-01
   178 P_Mix/Diag. 0.40E+00    2.1     0.34547644       -79.0185545755 -1.07E-01
   179 P_Mix/Diag. 0.40E+00    2.1     0.34547644       -78.9112282335  1.07E-01
   180 P_Mix/Diag. 0.40E+00    2.1     0.34547644       -79.0185545755 -1.07E-01
   181 P_Mix/Diag. 0.40E+00    2.1     0.34547644       -78.9112282335  1.07E-01
   182 P_Mix/Diag. 0.40E+00    2.1     0.34547644       -79.0185545755 -1.07E-01
   183 P_Mix/Diag. 0.40E+00    2.1     0.34547644       -78.9112282335  1.07E-01
   184 P_Mix/Diag. 0.40E+00    2.1     0.34547644       -79.0185545755 -1.07E-01
   185 P_Mix/Diag. 0.40E+00    2.1     0.34547644       -78.9112282335  1.07E-01
   186 P_Mix/Diag. 0.40E+00    2.1     0.34547644       -79.0185545755 -1.07E-01
   187 P_Mix/Diag. 0.40E+00    2.1     0.34547644       -78.9112282335  1.07E-01
   188 P_Mix/Diag. 0.40E+00    2.1     0.34547644       -79.0185545755 -1.07E-01
   189 P_Mix/Diag. 0.40E+00    2.2     0.34547644       -78.9112282335  1.07E-01
   190 P_Mix/Diag. 0.40E+00    2.1     0.34547644       -79.0185545755 -1.07E-01
   191 P_Mix/Diag. 0.40E+00    2.1     0.34547644       -78.9112282335  1.07E-01
   192 P_Mix/Diag. 0.40E+00    2.2     0.34547644       -79.0185545755 -1.07E-01
   193 P_Mix/Diag. 0.40E+00    2.2     0.34547644       -78.9112282335  1.07E-01
   194 P_Mix/Diag. 0.40E+00    2.2     0.34547644       -79.0185545755 -1.07E-01
   195 P_Mix/Diag. 0.40E+00    2.2     0.34547644       -78.9112282335  1.07E-01
   196 P_Mix/Diag. 0.40E+00    2.2     0.34547644       -79.0185545755 -1.07E-01
   197 P_Mix/Diag. 0.40E+00    2.1     0.34547644       -78.9112282335  1.07E-01
   198 P_Mix/Diag. 0.40E+00    2.1     0.34547644       -79.0185545755 -1.07E-01
   199 P_Mix/Diag. 0.40E+00    2.2     0.34547644       -78.9112282335  1.07E-01
   200 P_Mix/Diag. 0.40E+00    2.3     0.34547644       -79.0185545755 -1.07E-01

  Leaving inner SCF loop after reaching   200 steps.


  Electronic density on regular grids:         -8.6385780809        3.3614219191
  Core density on regular grids:               12.0000000000        0.0000000000
  Hard and soft densities (Lebedev):          -27.3269886820      -23.9655667703
  Total Rho_soft + Rho1_hard - Rho1_soft      -11.9999999925
  Total charge density (r-space):               0.0000000075
  Total Rho_soft + Rho0_soft (g-space):        -0.0000000622

  Overlap energy of the core charge distribution:               0.00004983055014
  Self energy of the core charge distribution:                -64.05191455199152
  Core Hamiltonian energy:                                    -12.87754687733193
  Hartree energy:                                              15.55743618106177
  Exchange-correlation energy:                                 -4.01414671445352

  GAPW| Exc from hard and soft atomic rho1:                    -6.84564779018346
  GAPW| local Eh = 1 center integrals:                         -6.78678465313208

  Total energy:                                               -79.01855457548059

 *** WARNING in qs_scf.F:542 :: SCF run NOT converged ***


 !-----------------------------------------------------------------------------!
                     Mulliken Population Analysis

 #  Atom  Element  Kind  Atomic population                           Net charge
       1     B        1          7.414225                             -2.414225
       2     N        2          4.585775                              2.414225
 # Total charge                             12.000000                 -0.000000

 !-----------------------------------------------------------------------------!

 !-----------------------------------------------------------------------------!
                           Hirshfeld Charges

  #Atom  Element  Kind  Ref Charge     Population                    Net charge
      1       B      1       5.000          6.959                        -1.959
      2       N      2       7.000          5.001                         1.999

  Total Charge                                                            0.040
 !-----------------------------------------------------------------------------!

 *******************************************************************************
 *   ___                                                                       *
 *  /   \                                                                      *
 * [ABORT]                                                                     *
 *  \___/               SCF not converged: not possible to run MP2             *
 *    |                                                                        *
 *  O/|                                                                        *
 * /| |                                                                        *
 * / \                                                               mp2.F:199 *
 *******************************************************************************


 ===== Routine Calling Stack ===== 

            2 qs_energies
            1 CP2K
--------------------------------------------------------------------------
MPI_ABORT was invoked on rank 0 in communicator MPI_COMM_WORLD
with errorcode 1.

NOTE: invoking MPI_ABORT causes Open MPI to kill all MPI processes.
You may or may not see output from other processes, depending on
exactly when Open MPI kills them.
--------------------------------------------------------------------------
