 DBCSR| CPU Multiplication driver                                           BLAS
 DBCSR| Multrec recursion limit                                              512
 DBCSR| Multiplication stack size                                           1000
 DBCSR| Maximum elements for images                                    UNLIMITED
 DBCSR| Multiplicative factor virtual images                                   1
 DBCSR| Use multiplication densification                                       T
 DBCSR| Multiplication size stacks                                             3
 DBCSR| Number of 3D layers                                               SINGLE
 DBCSR| Use MPI memory allocation                                              T
 DBCSR| Use RMA algorithm                                                      F
 DBCSR| Use Communication thread                                               T
 DBCSR| Communication thread load                                             87


  **** **** ******  **  PROGRAM STARTED AT               2019-06-07 05:38:27.379
 ***** ** ***  *** **   PROGRAM STARTED ON                                tcopt4
 **    ****   ******    PROGRAM STARTED BY                               wilhelm
 ***** **    ** ** **   PROGRAM PROCESS ID                                 56383
  **** **  *******  **  PROGRAM STARTED IN /data/wilhelm/2_job_test/11_GW100/3_c
                                           alcs/46_B2H6

 CP2K| version string:                    CP2K version 7.0 (Development Version)
 CP2K| source code revision number:                                  git:bc2813a
 CP2K| cp2kflags: libint fftw3 libxc pexsi elpa=201705 parallel mpi3 scalapack q
 CP2K|            uip libderiv_max_am1=5 libint_max_am=6
 CP2K| is freely available from                            https://www.cp2k.org/
 CP2K| Program compiled at                         Sun Jun  2 14:38:23 CEST 2019
 CP2K| Program compiled on                                                tcopt4
 CP2K| Program compiled for                            local_valgrind_March_2019
 CP2K| Data directory path              /data/wilhelm/1_git_repository/cp2k/data
 CP2K| Input file name                                                    GW.inp

 GLOBAL| Force Environment number                                              1
 GLOBAL| Basis set file name                              BASIS_def2_QZVP_RI_ALL
 GLOBAL| Potential file name                                           POTENTIAL
 GLOBAL| MM Potential file name                                     MM_POTENTIAL
 GLOBAL| Coordinate file name                                        46_B2H6.xyz
 GLOBAL| Method name                                                        CP2K
 GLOBAL| Project name                                                   ALL_ELEC
 GLOBAL| Preferred FFT library                                             FFTW3
 GLOBAL| Preferred diagonalization lib.                                       SL
 GLOBAL| Run type                                                         ENERGY
 GLOBAL| All-to-all communication in single precision                          F
 GLOBAL| FFTs using library dependent lengths                                  F
 GLOBAL| Global print level                                               MEDIUM
 GLOBAL| MPI I/O enabled                                                       T
 GLOBAL| Total number of message passing processes                            24
 GLOBAL| Number of threads for this process                                    1
 GLOBAL| This output is from process                                           0
 GLOBAL| CPU model name :  Intel(R) Xeon(R) CPU E5-2697 v3 @ 2.60GHz

 MEMORY| system memory details [Kb]
 MEMORY|                        rank 0           min           max       average
 MEMORY| MemTotal            396954008     396954008     396954008     396954008
 MEMORY| MemFree             343338780     343338780     343338780     343338780
 MEMORY| Buffers                277192        277192        277192        277192
 MEMORY| Cached               34653692      34653692      34653692      34653692
 MEMORY| Slab                  1199788       1199788       1199788       1199788
 MEMORY| SReclaimable          1059960       1059960       1059960       1059960
 MEMORY| MemLikelyFree       379329624     379329624     379329624     379329624


 *** Fundamental physical constants (SI units) ***

 *** Literature: B. J. Mohr and B. N. Taylor,
 ***             CODATA recommended values of the fundamental physical
 ***             constants: 2006, Web Version 5.1
 ***             http://physics.nist.gov/constants

 Speed of light in vacuum [m/s]                             2.99792458000000E+08
 Magnetic constant or permeability of vacuum [N/A**2]       1.25663706143592E-06
 Electric constant or permittivity of vacuum [F/m]          8.85418781762039E-12
 Planck constant (h) [J*s]                                  6.62606896000000E-34
 Planck constant (h-bar) [J*s]                              1.05457162825177E-34
 Elementary charge [C]                                      1.60217648700000E-19
 Electron mass [kg]                                         9.10938215000000E-31
 Electron g factor [ ]                                     -2.00231930436220E+00
 Proton mass [kg]                                           1.67262163700000E-27
 Fine-structure constant                                    7.29735253760000E-03
 Rydberg constant [1/m]                                     1.09737315685270E+07
 Avogadro constant [1/mol]                                  6.02214179000000E+23
 Boltzmann constant [J/K]                                   1.38065040000000E-23
 Atomic mass unit [kg]                                      1.66053878200000E-27
 Bohr radius [m]                                            5.29177208590000E-11

 *** Conversion factors ***

 [u] -> [a.u.]                                              1.82288848426455E+03
 [Angstrom] -> [Bohr] = [a.u.]                              1.88972613288564E+00
 [a.u.] = [Bohr] -> [Angstrom]                              5.29177208590000E-01
 [a.u.] -> [s]                                              2.41888432650478E-17
 [a.u.] -> [fs]                                             2.41888432650478E-02
 [a.u.] -> [J]                                              4.35974393937059E-18
 [a.u.] -> [N]                                              8.23872205491840E-08
 [a.u.] -> [K]                                              3.15774647902944E+05
 [a.u.] -> [kJ/mol]                                         2.62549961709828E+03
 [a.u.] -> [kcal/mol]                                       6.27509468713739E+02
 [a.u.] -> [Pa]                                             2.94210107994716E+13
 [a.u.] -> [bar]                                            2.94210107994716E+08
 [a.u.] -> [atm]                                            2.90362800883016E+08
 [a.u.] -> [eV]                                             2.72113838565563E+01
 [a.u.] -> [Hz]                                             6.57968392072181E+15
 [a.u.] -> [1/cm] (wave numbers)                            2.19474631370540E+05
 [a.u./Bohr**2] -> [1/cm]                                   5.14048714338585E+03
 

 CELL_TOP| Volume [angstrom^3]:                                         4096.000
 CELL_TOP| Vector a [angstrom    16.000     0.000     0.000    |a| =      16.000
 CELL_TOP| Vector b [angstrom     0.000    16.000     0.000    |b| =      16.000
 CELL_TOP| Vector c [angstrom     0.000     0.000    16.000    |c| =      16.000
 CELL_TOP| Angle (b,c), alpha [degree]:                                   90.000
 CELL_TOP| Angle (a,c), beta  [degree]:                                   90.000
 CELL_TOP| Angle (a,b), gamma [degree]:                                   90.000
 CELL_TOP| Numerically orthorhombic:                                         YES

 GENERATE|  Preliminary Number of Bonds generated:                             0
 GENERATE|  Achieved consistency in connectivity generation.

 CELL| Volume [angstrom^3]:                                             4096.000
 CELL| Vector a [angstrom]:      16.000     0.000     0.000    |a| =      16.000
 CELL| Vector b [angstrom]:       0.000    16.000     0.000    |b| =      16.000
 CELL| Vector c [angstrom]:       0.000     0.000    16.000    |c| =      16.000
 CELL| Angle (b,c), alpha [degree]:                                       90.000
 CELL| Angle (a,c), beta  [degree]:                                       90.000
 CELL| Angle (a,b), gamma [degree]:                                       90.000
 CELL| Numerically orthorhombic:                                             YES

 CELL_REF| Volume [angstrom^3]:                                         4096.000
 CELL_REF| Vector a [angstrom    16.000     0.000     0.000    |a| =      16.000
 CELL_REF| Vector b [angstrom     0.000    16.000     0.000    |b| =      16.000
 CELL_REF| Vector c [angstrom     0.000     0.000    16.000    |c| =      16.000
 CELL_REF| Angle (b,c), alpha [degree]:                                   90.000
 CELL_REF| Angle (a,c), beta  [degree]:                                   90.000
 CELL_REF| Angle (a,b), gamma [degree]:                                   90.000
 CELL_REF| Numerically orthorhombic:                                         YES

 *******************************************************************************
 *******************************************************************************
 **                                                                           **
 **     #####                         ##              ##                      **
 **    ##   ##            ##          ##              ##                      **
 **   ##     ##                       ##            ######                    **
 **   ##     ##  ##   ##  ##   #####  ##  ##   ####   ##    #####    #####    **
 **   ##     ##  ##   ##  ##  ##      ## ##   ##      ##   ##   ##  ##   ##   **
 **   ##  ## ##  ##   ##  ##  ##      ####     ###    ##   ######   ######    **
 **    ##  ###   ##   ##  ##  ##      ## ##      ##   ##   ##       ##        **
 **     #######   #####   ##   #####  ##  ##  ####    ##    #####   ##        **
 **           ##                                                    ##        **
 **                                                                           **
 **                                                ... make the atoms dance   **
 **                                                                           **
 **            Copyright (C) by CP2K developers group (2000 - 2019)           **
 **                                                                           **
 *******************************************************************************

 DFT| Spin restricted Kohn-Sham (RKS) calculation                            RKS
 DFT| Multiplicity                                                             1
 DFT| Number of spin states                                                    1
 DFT| Charge                                                                   0
 DFT| Self-interaction correction (SIC)                                       NO
 DFT| Cutoffs: density                                              1.000000E-10
 DFT|          gradient                                             1.000000E-10
 DFT|          tau                                                  1.000000E-10
 DFT|          cutoff_smoothing_range                               0.000000E+00
 DFT| XC density smoothing                                                  NONE
 DFT| XC derivatives                                                          PW
 FUNCTIONAL| ROUTINE=NEW
 FUNCTIONAL| PBE:
 FUNCTIONAL| J.P.Perdew, K.Burke, M.Ernzerhof, Phys. Rev. Letter, vol. 77, n 18,
 FUNCTIONAL|  pp. 3865-3868, (1996){spin unpolarized}                           

 QS| Method:                                                                GAPW
 QS| Density plane wave grid type                        NON-SPHERICAL FULLSPACE
 QS| Number of grid levels:                                                    4
 QS| Density cutoff [a.u.]:                                                200.0
 QS| Multi grid cutoff [a.u.]: 1) grid level                               200.0
 QS|                           2) grid level                                66.7
 QS|                           3) grid level                                22.2
 QS|                           4) grid level                                 7.4
 QS| Grid level progression factor:                                          3.0
 QS| Relative density cutoff [a.u.]:                                        25.0
 QS| Consistent realspace mapping and integration 
 QS| Interaction thresholds: eps_pgf_orb:                                1.0E-05
 QS|                         eps_filter_matrix:                          0.0E+00
 QS|                         eps_core_charge:                            1.0E-12
 QS|                         eps_rho_gspace:                             1.0E-10
 QS|                         eps_rho_rspace:                             1.0E-10
 QS|                         eps_gvg_rspace:                             1.0E-05
 QS|                         eps_ppl:                                    1.0E-02
 QS|                         eps_ppnl:                                   1.0E-07
 QS| GAPW|                   eps_fit:                                    1.0E-04
 QS| GAPW|                   eps_iso:                                    1.0E-12
 QS| GAPW|                   eps_svd:                                    1.0E-08
 QS| GAPW|                   eps_cpc:                                    1.0E-10
 QS| GAPW|   atom-r-grid: quadrature:                 GC_LOG                        
 QS| GAPW|      atom-s-grid:  max l :                                          8
 QS| GAPW|      max_l_rho0 :                                                   2


 ATOMIC KIND INFORMATION

  1. Atomic kind: B                                     Number of atoms:       2

     Orbital Basis Set                                                 def2-QZVP

       Number of orbital shell sets:                                          17
       Number of orbital shells:                                              17
       Number of primitive Cartesian functions:                               29
       Number of Cartesian basis functions:                                   72
       Number of spherical basis functions:                                   57
       Norm type:                                                              2

       Normalised Cartesian orbitals:

                        Set   Shell   Orbital            Exponent    Coefficient

                          1       1    1s            46447.667056       0.160652
                                                      6957.688904       0.300649
                                                      1583.442840       0.519457
                                                       448.466010       0.844001
                                                       146.286393       1.287379
                                                        52.784386       1.803207
                                                        20.519396       2.183115
                                                         8.418566       2.086207

                          2       1    1s               36.510018       0.982622
                                                        10.541854       3.867338

                          3       1    1s                3.600409       1.862833

                          4       1    1s                1.561702       0.995655

                          5       1    1s                0.449974       0.391562

                          6       1    1s                0.180752       0.197571

                          7       1    1s                0.071597       0.098646

                          8       1    1px              72.240463       0.711083
                                                        16.807707       0.912991
                                                         5.225941       0.954933
                                                         1.850835       0.878667
                                                         0.722068       0.679455
                          8       1    1py              72.240463       0.711083
                                                        16.807707       0.912991
                                                         5.225941       0.954933
                                                         1.850835       0.878667
                                                         0.722068       0.679455
                          8       1    1pz              72.240463       0.711083
                                                        16.807707       0.912991
                                                         5.225941       0.954933
                                                         1.850835       0.878667
                                                         0.722068       0.679455

                          9       1    1px               0.294910       0.309779
                          9       1    1py               0.294910       0.309779
                          9       1    1pz               0.294910       0.309779

                         10       1    1px               0.122011       0.102788
                         10       1    1py               0.122011       0.102788
                         10       1    1pz               0.122011       0.102788

                         11       1    1px               0.049865       0.033588
                         11       1    1py               0.049865       0.033588
                         11       1    1pz               0.049865       0.033588

                         12       1    1dx2              1.110000       1.975717
                         12       1    1dxy              1.110000       3.422042
                         12       1    1dxz              1.110000       3.422042
                         12       1    1dy2              1.110000       1.975717
                         12       1    1dyz              1.110000       3.422042
                         12       1    1dz2              1.110000       1.975717

                         13       1    1dx2              0.402000       0.334045
                         13       1    1dxy              0.402000       0.578583
                         13       1    1dxz              0.402000       0.578583
                         13       1    1dy2              0.402000       0.334045
                         13       1    1dyz              0.402000       0.578583
                         13       1    1dz2              0.402000       0.334045

                         14       1    1dx2              0.145000       0.056079
                         14       1    1dxy              0.145000       0.097132
                         14       1    1dxz              0.145000       0.097132
                         14       1    1dy2              0.145000       0.056079
                         14       1    1dyz              0.145000       0.097132
                         14       1    1dz2              0.145000       0.056079

                         15       1    1fx3              0.882000       1.109836
                         15       1    1fx2y             0.882000       2.481669
                         15       1    1fx2z             0.882000       2.481669
                         15       1    1fxy2             0.882000       2.481669
                         15       1    1fxyz             0.882000       4.298376
                         15       1    1fxz2             0.882000       2.481669
                         15       1    1fy3              0.882000       1.109836
                         15       1    1fy2z             0.882000       2.481669
                         15       1    1fyz2             0.882000       2.481669
                         15       1    1fz3              0.882000       1.109836

                         16       1    1fx3              0.311000       0.106332
                         16       1    1fx2y             0.311000       0.237766
                         16       1    1fx2z             0.311000       0.237766
                         16       1    1fxy2             0.311000       0.237766
                         16       1    1fxyz             0.311000       0.411823
                         16       1    1fxz2             0.311000       0.237766
                         16       1    1fy3              0.311000       0.106332
                         16       1    1fy2z             0.311000       0.237766
                         16       1    1fyz2             0.311000       0.237766
                         16       1    1fz3              0.311000       0.106332

                         17       1    1gx4              0.673000       0.374522
                         17       1    1gx3y             0.673000       0.990891
                         17       1    1gx3z             0.673000       0.990891
                         17       1    1gx2y2            0.673000       1.279235
                         17       1    1gx2yz            0.673000       2.215700
                         17       1    1gx2z2            0.673000       1.279235
                         17       1    1gxy3             0.673000       0.990891
                         17       1    1gxy2z            0.673000       2.215700
                         17       1    1gxyz2            0.673000       2.215700
                         17       1    1gxz3             0.673000       0.990891
                         17       1    1gy4              0.673000       0.374522
                         17       1    1gy3z             0.673000       0.990891
                         17       1    1gy2z2            0.673000       1.279235
                         17       1    1gyz3             0.673000       0.990891
                         17       1    1gz4              0.673000       0.374522

     RI Auxiliary Basis Set                                                RI-5Z

       Number of orbital shell sets:                                          39
       Number of orbital shells:                                              39
       Number of primitive Cartesian functions:                               39
       Number of Cartesian basis functions:                                  287
       Number of spherical basis functions:                                  193
       Norm type:                                                              2

       Normalised Cartesian orbitals:

                        Set   Shell   Orbital            Exponent    Coefficient

                          1       1    1s              142.715000      29.428106

                          2       1    1s               34.757300      10.202218

                          3       1    1s                9.063320       3.722850

                          4       1    1s                4.124940       2.062877

                          5       1    1s                2.103280       1.244752

                          6       1    1s                1.043310       0.735733

                          7       1    1s                0.591867       0.480926

                          8       1    1s                0.387495       0.350034

                          9       1    1s                0.193579       0.207995

                         10       1    1s                0.100115       0.126848

                         11       1    1px              36.802300     129.206330
                         11       1    1py              36.802300     129.206330
                         11       1    1pz              36.802300     129.206330

                         12       1    1px               9.892560      25.007827
                         12       1    1py               9.892560      25.007827
                         12       1    1pz               9.892560      25.007827

                         13       1    1px               3.548920       6.943211
                         13       1    1py               3.548920       6.943211
                         13       1    1pz               3.548920       6.943211

                         14       1    1px               1.677110       2.720458
                         14       1    1py               1.677110       2.720458
                         14       1    1pz               1.677110       2.720458

                         15       1    1px               0.926420       1.295538
                         15       1    1py               0.926420       1.295538
                         15       1    1pz               0.926420       1.295538

                         16       1    1px               0.445473       0.518760
                         16       1    1py               0.445473       0.518760
                         16       1    1pz               0.445473       0.518760

                         17       1    1px               0.248681       0.250319
                         17       1    1py               0.248681       0.250319
                         17       1    1pz               0.248681       0.250319

                         18       1    1px               0.140195       0.122280
                         18       1    1py               0.140195       0.122280
                         18       1    1pz               0.140195       0.122280

                         19       1    1dx2             10.808500     106.047138
                         19       1    1dxy             10.808500     183.679031
                         19       1    1dxz             10.808500     183.679031
                         19       1    1dy2             10.808500     106.047138
                         19       1    1dyz             10.808500     183.679031
                         19       1    1dz2             10.808500     106.047138

                         20       1    1dx2              4.554610      23.372171
                         20       1    1dxy              4.554610      40.481787
                         20       1    1dxz              4.554610      40.481787
                         20       1    1dy2              4.554610      23.372171
                         20       1    1dyz              4.554610      40.481787
                         20       1    1dz2              4.554610      23.372171

                         21       1    1dx2              2.202870       6.556016
                         21       1    1dxy              2.202870      11.355352
                         21       1    1dxz              2.202870      11.355352
                         21       1    1dy2              2.202870       6.556016
                         21       1    1dyz              2.202870      11.355352
                         21       1    1dz2              2.202870       6.556016

                         22       1    1dx2              1.056650       1.812546
                         22       1    1dxy              1.056650       3.139421
                         22       1    1dxz              1.056650       3.139421
                         22       1    1dy2              1.056650       1.812546
                         22       1    1dyz              1.056650       3.139421
                         22       1    1dz2              1.056650       1.812546

                         23       1    1dx2              0.495164       0.481083
                         23       1    1dxy              0.495164       0.833261
                         23       1    1dxz              0.495164       0.833261
                         23       1    1dy2              0.495164       0.481083
                         23       1    1dyz              0.495164       0.833261
                         23       1    1dz2              0.495164       0.481083

                         24       1    1dx2              0.264649       0.160725
                         24       1    1dxy              0.264649       0.278383
                         24       1    1dxz              0.264649       0.278383
                         24       1    1dy2              0.264649       0.160725
                         24       1    1dyz              0.264649       0.278383
                         24       1    1dz2              0.264649       0.160725

                         25       1    1dx2              0.165073       0.070363
                         25       1    1dxy              0.165073       0.121872
                         25       1    1dxz              0.165073       0.121872
                         25       1    1dy2              0.165073       0.070363
                         25       1    1dyz              0.165073       0.121872
                         25       1    1dz2              0.165073       0.070363

                         26       1    1fx3              4.908970      52.805943
                         26       1    1fx2y             4.908970     118.077678
                         26       1    1fx2z             4.908970     118.077678
                         26       1    1fxy2             4.908970     118.077678
                         26       1    1fxyz             4.908970     204.516537
                         26       1    1fxz2             4.908970     118.077678
                         26       1    1fy3              4.908970      52.805943
                         26       1    1fy2z             4.908970     118.077678
                         26       1    1fyz2             4.908970     118.077678
                         26       1    1fz3              4.908970      52.805943

                         27       1    1fx3              2.483560      11.399149
                         27       1    1fx2y             2.483560      25.489272
                         27       1    1fx2z             2.483560      25.489272
                         27       1    1fxy2             2.483560      25.489272
                         27       1    1fxyz             2.483560      44.148714
                         27       1    1fxz2             2.483560      25.489272
                         27       1    1fy3              2.483560      11.399149
                         27       1    1fy2z             2.483560      25.489272
                         27       1    1fyz2             2.483560      25.489272
                         27       1    1fz3              2.483560      11.399149

                         28       1    1fx3              1.421170       3.246445
                         28       1    1fx2y             1.421170       7.259271
                         28       1    1fx2z             1.421170       7.259271
                         28       1    1fxy2             1.421170       7.259271
                         28       1    1fxyz             1.421170      12.573427
                         28       1    1fxz2             1.421170       7.259271
                         28       1    1fy3              1.421170       3.246445
                         28       1    1fy2z             1.421170       7.259271
                         28       1    1fyz2             1.421170       7.259271
                         28       1    1fz3              1.421170       3.246445

                         29       1    1fx3              0.724300       0.712477
                         29       1    1fx2y             0.724300       1.593148
                         29       1    1fx2z             0.724300       1.593148
                         29       1    1fxy2             0.724300       1.593148
                         29       1    1fxyz             0.724300       2.759413
                         29       1    1fxz2             0.724300       1.593148
                         29       1    1fy3              0.724300       0.712477
                         29       1    1fy2z             0.724300       1.593148
                         29       1    1fyz2             0.724300       1.593148
                         29       1    1fz3              0.724300       0.712477

                         30       1    1fx3              0.398860       0.186123
                         30       1    1fx2y             0.398860       0.416184
                         30       1    1fx2z             0.398860       0.416184
                         30       1    1fxy2             0.398860       0.416184
                         30       1    1fxyz             0.398860       0.720852
                         30       1    1fxz2             0.398860       0.416184
                         30       1    1fy3              0.398860       0.186123
                         30       1    1fy2z             0.398860       0.416184
                         30       1    1fyz2             0.398860       0.416184
                         30       1    1fz3              0.398860       0.186123

                         31       1    1fx3              0.242397       0.060693
                         31       1    1fx2y             0.242397       0.135714
                         31       1    1fx2z             0.242397       0.135714
                         31       1    1fxy2             0.242397       0.135714
                         31       1    1fxyz             0.242397       0.235064
                         31       1    1fxz2             0.242397       0.135714
                         31       1    1fy3              0.242397       0.060693
                         31       1    1fy2z             0.242397       0.135714
                         31       1    1fyz2             0.242397       0.135714
                         31       1    1fz3              0.242397       0.060693

                         32       1    1gx4              3.560170      36.557791
                         32       1    1gx3y             3.560170      96.722824
                         32       1    1gx3z             3.560170      96.722824
                         32       1    1gx2y2            3.560170     124.868629
                         32       1    1gx2yz            3.560170     216.278810
                         32       1    1gx2z2            3.560170     124.868629
                         32       1    1gxy3             3.560170      96.722824
                         32       1    1gxy2z            3.560170     216.278810
                         32       1    1gxyz2            3.560170     216.278810
                         32       1    1gxz3             3.560170      96.722824
                         32       1    1gy4              3.560170      36.557791
                         32       1    1gy3z             3.560170      96.722824
                         32       1    1gy2z2            3.560170     124.868629
                         32       1    1gyz3             3.560170      96.722824
                         32       1    1gz4              3.560170      36.557791

                         33       1    1gx4              1.364190       2.614215
                         33       1    1gx3y             1.364190       6.916563
                         33       1    1gx3z             1.364190       6.916563
                         33       1    1gx2y2            1.364190       8.929244
                         33       1    1gx2yz            1.364190      15.465904
                         33       1    1gx2z2            1.364190       8.929244
                         33       1    1gxy3             1.364190       6.916563
                         33       1    1gxy2z            1.364190      15.465904
                         33       1    1gxyz2            1.364190      15.465904
                         33       1    1gxz3             1.364190       6.916563
                         33       1    1gy4              1.364190       2.614215
                         33       1    1gy3z             1.364190       6.916563
                         33       1    1gy2z2            1.364190       8.929244
                         33       1    1gyz3             1.364190       6.916563
                         33       1    1gz4              1.364190       2.614215

                         34       1    1gx4              0.662307       0.358384
                         34       1    1gx3y             0.662307       0.948195
                         34       1    1gx3z             0.662307       0.948195
                         34       1    1gx2y2            0.662307       1.224114
                         34       1    1gx2yz            0.662307       2.120228
                         34       1    1gx2z2            0.662307       1.224114
                         34       1    1gxy3             0.662307       0.948195
                         34       1    1gxy2z            0.662307       2.120228
                         34       1    1gxyz2            0.662307       2.120228
                         34       1    1gxz3             0.662307       0.948195
                         34       1    1gy4              0.662307       0.358384
                         34       1    1gy3z             0.662307       0.948195
                         34       1    1gy2z2            0.662307       1.224114
                         34       1    1gyz3             0.662307       0.948195
                         34       1    1gz4              0.662307       0.358384

                         35       1    1gx4              0.393770       0.085773
                         35       1    1gx3y             0.393770       0.226935
                         35       1    1gx3z             0.393770       0.226935
                         35       1    1gx2y2            0.393770       0.292972
                         35       1    1gx2yz            0.393770       0.507442
                         35       1    1gx2z2            0.393770       0.292972
                         35       1    1gxy3             0.393770       0.226935
                         35       1    1gxy2z            0.393770       0.507442
                         35       1    1gxyz2            0.393770       0.507442
                         35       1    1gxz3             0.393770       0.226935
                         35       1    1gy4              0.393770       0.085773
                         35       1    1gy3z             0.393770       0.226935
                         35       1    1gy2z2            0.393770       0.292972
                         35       1    1gyz3             0.393770       0.226935
                         35       1    1gz4              0.393770       0.085773

                         36       1    1hx5              1.852370       5.501224
                         36       1    1hx4y             1.852370      16.503672
                         36       1    1hx4z             1.852370      16.503672
                         36       1    1hx3y2            1.852370      25.209775
                         36       1    1hx3yz            1.852370      43.664611
                         36       1    1hx3z2            1.852370      25.209775
                         36       1    1hx2y3            1.852370      25.209775
                         36       1    1hx2y2z           1.852370      56.370770
                         36       1    1hx2yz2           1.852370      56.370770
                         36       1    1hx2z3            1.852370      25.209775
                         36       1    1hxy4             1.852370      16.503672
                         36       1    1hxy3z            1.852370      43.664611
                         36       1    1hxy2z2           1.852370      56.370770
                         36       1    1hxyz3            1.852370      43.664611
                         36       1    1hxz4             1.852370      16.503672
                         36       1    1hy5              1.852370       5.501224
                         36       1    1hy4z             1.852370      16.503672
                         36       1    1hy3z2            1.852370      25.209775
                         36       1    1hy2z3            1.852370      25.209775
                         36       1    1hyz4             1.852370      16.503672
                         36       1    1hz5              1.852370       5.501224

                         37       1    1hx5              0.994333       0.728321
                         37       1    1hx4y             0.994333       2.184962
                         37       1    1hx4z             0.994333       2.184962
                         37       1    1hx3y2            0.994333       3.337585
                         37       1    1hx3yz            0.994333       5.780867
                         37       1    1hx3z2            0.994333       3.337585
                         37       1    1hx2y3            0.994333       3.337585
                         37       1    1hx2y2z           0.994333       7.463067
                         37       1    1hx2yz2           0.994333       7.463067
                         37       1    1hx2z3            0.994333       3.337585
                         37       1    1hxy4             0.994333       2.184962
                         37       1    1hxy3z            0.994333       5.780867
                         37       1    1hxy2z2           0.994333       7.463067
                         37       1    1hxyz3            0.994333       5.780867
                         37       1    1hxz4             0.994333       2.184962
                         37       1    1hy5              0.994333       0.728321
                         37       1    1hy4z             0.994333       2.184962
                         37       1    1hy3z2            0.994333       3.337585
                         37       1    1hy2z3            0.994333       3.337585
                         37       1    1hyz4             0.994333       2.184962
                         37       1    1hz5              0.994333       0.728321

                         38       1    1hx5              0.625900       0.161803
                         38       1    1hx4y             0.625900       0.485408
                         38       1    1hx4z             0.625900       0.485408
                         38       1    1hx3y2            0.625900       0.741472
                         38       1    1hx3yz            0.625900       1.284268
                         38       1    1hx3z2            0.625900       0.741472
                         38       1    1hx2y3            0.625900       0.741472
                         38       1    1hx2y2z           0.625900       1.657982
                         38       1    1hx2yz2           0.625900       1.657982
                         38       1    1hx2z3            0.625900       0.741472
                         38       1    1hxy4             0.625900       0.485408
                         38       1    1hxy3z            0.625900       1.284268
                         38       1    1hxy2z2           0.625900       1.657982
                         38       1    1hxyz3            0.625900       1.284268
                         38       1    1hxz4             0.625900       0.485408
                         38       1    1hy5              0.625900       0.161803
                         38       1    1hy4z             0.625900       0.485408
                         38       1    1hy3z2            0.625900       0.741472
                         38       1    1hy2z3            0.625900       0.741472
                         38       1    1hyz4             0.625900       0.485408
                         38       1    1hz5              0.625900       0.161803

                         39       1    1ix6              1.130180       0.707915
                         39       1    1ix5y             1.130180       2.347890
                         39       1    1ix5z             1.130180       2.347890
                         39       1    1ix4y2            1.130180       4.066665
                         39       1    1ix4yz            1.130180       7.043670
                         39       1    1ix4z2            1.130180       4.066665
                         39       1    1ix3y3            1.130180       4.811742
                         39       1    1ix3y2z           1.130180      10.759383
                         39       1    1ix3yz2           1.130180      10.759383
                         39       1    1ix3z3            1.130180       4.811742
                         39       1    1ix2y4            1.130180       4.066665
                         39       1    1ix2y3z           1.130180      10.759383
                         39       1    1ix2y2z2          1.130180      13.890304
                         39       1    1ix2yz3           1.130180      10.759383
                         39       1    1ix2z4            1.130180       4.066665
                         39       1    1ixy5             1.130180       2.347890
                         39       1    1ixy4z            1.130180       7.043670
                         39       1    1ixy3z2           1.130180      10.759383
                         39       1    1ixy2z3           1.130180      10.759383
                         39       1    1ixyz4            1.130180       7.043670
                         39       1    1ixz5             1.130180       2.347890
                         39       1    1iy6              1.130180       0.707915
                         39       1    1iy5z             1.130180       2.347890
                         39       1    1iy4z2            1.130180       4.066665
                         39       1    1iy3z3            1.130180       4.811742
                         39       1    1iy2z4            1.130180       4.066665
                         39       1    1iyz5             1.130180       2.347890
                         39       1    1iz6              1.130180       0.707915

     The atoms of this atomic kind are PAW atoms (GAPW):
       Hard Gaussian function radius:                                      1.512
       Rho0 radius:                                                        1.512
       Maximum GTO radius used for PAW projector construction:            24.566

     GAPW Soft Basis Set                                          def2-QZVP_soft

       Number of orbital shell sets:                                          17
       Number of orbital shells:                                              17
       Number of primitive Cartesian functions:                               16
       Number of Cartesian basis functions:                                   72
       Number of spherical basis functions:                                   57
       Norm type:                                                              2

       Normalised Cartesian orbitals:

                        Set   Shell   Orbital            Exponent    Coefficient

                          1       1    1s         

                          2       1    1s         

                          3       1    1s                3.600409       1.862833

                          4       1    1s                1.561702       0.995655

                          5       1    1s                0.449974       0.391562

                          6       1    1s                0.180752       0.197571

                          7       1    1s                0.071597       0.098646

                          8       1    1px               1.850835       0.878667
                                                         0.722068       0.679455
                          8       1    1py               1.850835       0.878667
                                                         0.722068       0.679455
                          8       1    1pz               1.850835       0.878667
                                                         0.722068       0.679455

                          9       1    1px               0.294910       0.309779
                          9       1    1py               0.294910       0.309779
                          9       1    1pz               0.294910       0.309779

                         10       1    1px               0.122011       0.102788
                         10       1    1py               0.122011       0.102788
                         10       1    1pz               0.122011       0.102788

                         11       1    1px               0.049865       0.033588
                         11       1    1py               0.049865       0.033588
                         11       1    1pz               0.049865       0.033588

                         12       1    1dx2              1.110000       1.975717
                         12       1    1dxy              1.110000       3.422042
                         12       1    1dxz              1.110000       3.422042
                         12       1    1dy2              1.110000       1.975717
                         12       1    1dyz              1.110000       3.422042
                         12       1    1dz2              1.110000       1.975717

                         13       1    1dx2              0.402000       0.334045
                         13       1    1dxy              0.402000       0.578583
                         13       1    1dxz              0.402000       0.578583
                         13       1    1dy2              0.402000       0.334045
                         13       1    1dyz              0.402000       0.578583
                         13       1    1dz2              0.402000       0.334045

                         14       1    1dx2              0.145000       0.056079
                         14       1    1dxy              0.145000       0.097132
                         14       1    1dxz              0.145000       0.097132
                         14       1    1dy2              0.145000       0.056079
                         14       1    1dyz              0.145000       0.097132
                         14       1    1dz2              0.145000       0.056079

                         15       1    1fx3              0.882000       1.109836
                         15       1    1fx2y             0.882000       2.481669
                         15       1    1fx2z             0.882000       2.481669
                         15       1    1fxy2             0.882000       2.481669
                         15       1    1fxyz             0.882000       4.298376
                         15       1    1fxz2             0.882000       2.481669
                         15       1    1fy3              0.882000       1.109836
                         15       1    1fy2z             0.882000       2.481669
                         15       1    1fyz2             0.882000       2.481669
                         15       1    1fz3              0.882000       1.109836

                         16       1    1fx3              0.311000       0.106332
                         16       1    1fx2y             0.311000       0.237766
                         16       1    1fx2z             0.311000       0.237766
                         16       1    1fxy2             0.311000       0.237766
                         16       1    1fxyz             0.311000       0.411823
                         16       1    1fxz2             0.311000       0.237766
                         16       1    1fy3              0.311000       0.106332
                         16       1    1fy2z             0.311000       0.237766
                         16       1    1fyz2             0.311000       0.237766
                         16       1    1fz3              0.311000       0.106332

                         17       1    1gx4              0.673000       0.374522
                         17       1    1gx3y             0.673000       0.990891
                         17       1    1gx3z             0.673000       0.990891
                         17       1    1gx2y2            0.673000       1.279235
                         17       1    1gx2yz            0.673000       2.215700
                         17       1    1gx2z2            0.673000       1.279235
                         17       1    1gxy3             0.673000       0.990891
                         17       1    1gxy2z            0.673000       2.215700
                         17       1    1gxyz2            0.673000       2.215700
                         17       1    1gxz3             0.673000       0.990891
                         17       1    1gy4              0.673000       0.374522
                         17       1    1gy3z             0.673000       0.990891
                         17       1    1gy2z2            0.673000       1.279235
                         17       1    1gyz3             0.673000       0.990891
                         17       1    1gz4              0.673000       0.374522

     AE Potential information for                                            ALL

       Description:                                       All-electron potential
                                          Krack, Parrinello, PCCP 2, 2105 (2000)

       Gaussian exponent of the core charge distribution:               2.655410
       Electronic configuration (s p d ...):                           4   1   0

  2. Atomic kind: H                                     Number of atoms:       6

     Orbital Basis Set                                                 def2-QZVP

       Number of orbital shell sets:                                          10
       Number of orbital shells:                                              10
       Number of primitive Cartesian functions:                               13
       Number of Cartesian basis functions:                                   35
       Number of spherical basis functions:                                   30
       Norm type:                                                              2

       Normalised Cartesian orbitals:

                        Set   Shell   Orbital            Exponent    Coefficient

                          1       1    1s              190.691690       0.195396
                                                        28.605532       0.363661
                                                         6.509594       0.612837
                                                         1.841246       0.914889

                          2       1    1s                0.598537       0.484985

                          3       1    1s                0.213976       0.224225

                          4       1    1s                0.080316       0.107526

                          5       1    1px               2.292000       4.019836
                          5       1    1py               2.292000       4.019836
                          5       1    1pz               2.292000       4.019836

                          6       1    1px               0.838000       1.142865
                          6       1    1py               0.838000       1.142865
                          6       1    1pz               0.838000       1.142865

                          7       1    1px               0.292000       0.305963
                          7       1    1py               0.292000       0.305963
                          7       1    1pz               0.292000       0.305963

                          8       1    1dx2              2.062000       5.840024
                          8       1    1dxy              2.062000      10.115218
                          8       1    1dxz              2.062000      10.115218
                          8       1    1dy2              2.062000       5.840024
                          8       1    1dyz              2.062000      10.115218
                          8       1    1dz2              2.062000       5.840024

                          9       1    1dx2              0.662000       0.799670
                          9       1    1dxy              0.662000       1.385069
                          9       1    1dxz              0.662000       1.385069
                          9       1    1dy2              0.662000       0.799670
                          9       1    1dyz              0.662000       1.385069
                          9       1    1dz2              0.662000       0.799670

                         10       1    1fx3              1.397000       3.123535
                         10       1    1fx2y             1.397000       6.984436
                         10       1    1fx2z             1.397000       6.984436
                         10       1    1fxy2             1.397000       6.984436
                         10       1    1fxyz             1.397000      12.097399
                         10       1    1fxz2             1.397000       6.984436
                         10       1    1fy3              1.397000       3.123535
                         10       1    1fy2z             1.397000       6.984436
                         10       1    1fyz2             1.397000       6.984436
                         10       1    1fz3              1.397000       3.123535

     RI Auxiliary Basis Set                                                RI-5Z

       Number of orbital shell sets:                                          21
       Number of orbital shells:                                              21
       Number of primitive Cartesian functions:                               21
       Number of Cartesian basis functions:                                  126
       Number of spherical basis functions:                                   91
       Norm type:                                                              2

       Normalised Cartesian orbitals:

                        Set   Shell   Orbital            Exponent    Coefficient

                          1       1    1s               23.321500       7.563581

                          2       1    1s                4.922970       2.355486

                          3       1    1s                1.775100       1.096042

                          4       1    1s                0.994218       0.709613

                          5       1    1s                0.506054       0.427620

                          6       1    1s                0.236911       0.242019

                          7       1    1px               5.974580      13.314483
                          7       1    1py               5.974580      13.314483
                          7       1    1pz               5.974580      13.314483

                          8       1    1px               2.052170       3.501118
                          8       1    1py               2.052170       3.501118
                          8       1    1pz               2.052170       3.501118

                          9       1    1px               1.248660       1.881462
                          9       1    1py               1.248660       1.881462
                          9       1    1pz               1.248660       1.881462

                         10       1    1px               0.805545       1.087808
                         10       1    1py               0.805545       1.087808
                         10       1    1pz               0.805545       1.087808

                         11       1    1px               0.347892       0.380843
                         11       1    1py               0.347892       0.380843
                         11       1    1pz               0.347892       0.380843

                         12       1    1dx2              3.858160      17.481346
                         12       1    1dxy              3.858160      30.278579
                         12       1    1dxz              3.858160      30.278579
                         12       1    1dy2              3.858160      17.481346
                         12       1    1dyz              3.858160      30.278579
                         12       1    1dz2              3.858160      17.481346

                         13       1    1dx2              1.710630       4.211459
                         13       1    1dxy              1.710630       7.294461
                         13       1    1dxz              1.710630       7.294461
                         13       1    1dy2              1.710630       4.211459
                         13       1    1dyz              1.710630       7.294461
                         13       1    1dz2              1.710630       4.211459

                         14       1    1dx2              0.979237       1.586584
                         14       1    1dxy              0.979237       2.748044
                         14       1    1dxz              0.979237       2.748044
                         14       1    1dy2              0.979237       1.586584
                         14       1    1dyz              0.979237       2.748044
                         14       1    1dz2              0.979237       1.586584

                         15       1    1dx2              0.625366       0.723843
                         15       1    1dxy              0.625366       1.253733
                         15       1    1dxz              0.625366       1.253733
                         15       1    1dy2              0.625366       0.723843
                         15       1    1dyz              0.625366       1.253733
                         15       1    1dz2              0.625366       0.723843

                         16       1    1fx3              3.101510      18.792914
                         16       1    1fx2y             3.101510      42.022232
                         16       1    1fx2z             3.101510      42.022232
                         16       1    1fxy2             3.101510      42.022232
                         16       1    1fxyz             3.101510      72.784641
                         16       1    1fxz2             3.101510      42.022232
                         16       1    1fy3              3.101510      18.792914
                         16       1    1fy2z             3.101510      42.022232
                         16       1    1fyz2             3.101510      42.022232
                         16       1    1fz3              3.101510      18.792914

                         17       1    1fx3              1.198110       2.210915
                         17       1    1fx2y             1.198110       4.943756
                         17       1    1fx2z             1.198110       4.943756
                         17       1    1fxy2             1.198110       4.943756
                         17       1    1fxyz             1.198110       8.562836
                         17       1    1fxz2             1.198110       4.943756
                         17       1    1fy3              1.198110       2.210915
                         17       1    1fy2z             1.198110       4.943756
                         17       1    1fyz2             1.198110       4.943756
                         17       1    1fz3              1.198110       2.210915

                         18       1    1fx3              0.572873       0.420326
                         18       1    1fx2y             0.572873       0.939876
                         18       1    1fx2z             0.572873       0.939876
                         18       1    1fxy2             0.572873       0.939876
                         18       1    1fxyz             0.572873       1.627914
                         18       1    1fxz2             0.572873       0.939876
                         18       1    1fy3              0.572873       0.420326
                         18       1    1fy2z             0.572873       0.939876
                         18       1    1fyz2             0.572873       0.939876
                         18       1    1fz3              0.572873       0.420326

                         19       1    1gx4              2.987800      22.576266
                         19       1    1gx3y             2.987800      59.731185
                         19       1    1gx3z             2.987800      59.731185
                         19       1    1gx2y2            2.987800      77.112629
                         19       1    1gx2yz            2.987800     133.562991
                         19       1    1gx2z2            2.987800      77.112629
                         19       1    1gxy3             2.987800      59.731185
                         19       1    1gxy2z            2.987800     133.562991
                         19       1    1gxyz2            2.987800     133.562991
                         19       1    1gxz3             2.987800      59.731185
                         19       1    1gy4              2.987800      22.576266
                         19       1    1gy3z             2.987800      59.731185
                         19       1    1gy2z2            2.987800      77.112629
                         19       1    1gyz3             2.987800      59.731185
                         19       1    1gz4              2.987800      22.576266

                         20       1    1gx4              1.231920       1.974865
                         20       1    1gx3y             1.231920       5.225001
                         20       1    1gx3z             1.231920       5.225001
                         20       1    1gx2y2            1.231920       6.745447
                         20       1    1gx2yz            1.231920      11.683456
                         20       1    1gx2z2            1.231920       6.745447
                         20       1    1gxy3             1.231920       5.225001
                         20       1    1gxy2z            1.231920      11.683456
                         20       1    1gxyz2            1.231920      11.683456
                         20       1    1gxz3             1.231920       5.225001
                         20       1    1gy4              1.231920       1.974865
                         20       1    1gy3z             1.231920       5.225001
                         20       1    1gy2z2            1.231920       6.745447
                         20       1    1gyz3             1.231920       5.225001
                         20       1    1gz4              1.231920       1.974865

                         21       1    1hx5              3.247390      34.106027
                         21       1    1hx4y             3.247390     102.318080
                         21       1    1hx4z             3.247390     102.318080
                         21       1    1hx3y2            3.247390     156.293448
                         21       1    1hx3yz            3.247390     270.708193
                         21       1    1hx3z2            3.247390     156.293448
                         21       1    1hx2y3            3.247390     156.293448
                         21       1    1hx2y2z           3.247390     349.482775
                         21       1    1hx2yz2           3.247390     349.482775
                         21       1    1hx2z3            3.247390     156.293448
                         21       1    1hxy4             3.247390     102.318080
                         21       1    1hxy3z            3.247390     270.708193
                         21       1    1hxy2z2           3.247390     349.482775
                         21       1    1hxyz3            3.247390     270.708193
                         21       1    1hxz4             3.247390     102.318080
                         21       1    1hy5              3.247390      34.106027
                         21       1    1hy4z             3.247390     102.318080
                         21       1    1hy3z2            3.247390     156.293448
                         21       1    1hy2z3            3.247390     156.293448
                         21       1    1hyz4             3.247390     102.318080
                         21       1    1hz5              3.247390      34.106027

     The atoms of this atomic kind are PAW atoms (GAPW):
       Hard Gaussian function radius:                                      1.200
       Rho0 radius:                                                        1.200
       Maximum GTO radius used for PAW projector construction:            24.566

     GAPW Soft Basis Set                                          def2-QZVP_soft

       Number of orbital shell sets:                                          10
       Number of orbital shells:                                              10
       Number of primitive Cartesian functions:                               10
       Number of Cartesian basis functions:                                   35
       Number of spherical basis functions:                                   30
       Norm type:                                                              2

       Normalised Cartesian orbitals:

                        Set   Shell   Orbital            Exponent    Coefficient

                          1       1    1s                1.841246       0.914889

                          2       1    1s                0.598537       0.484985

                          3       1    1s                0.213976       0.224225

                          4       1    1s                0.080316       0.107526

                          5       1    1px               2.292000       4.019836
                          5       1    1py               2.292000       4.019836
                          5       1    1pz               2.292000       4.019836

                          6       1    1px               0.838000       1.142865
                          6       1    1py               0.838000       1.142865
                          6       1    1pz               0.838000       1.142865

                          7       1    1px               0.292000       0.305963
                          7       1    1py               0.292000       0.305963
                          7       1    1pz               0.292000       0.305963

                          8       1    1dx2              2.062000       5.840024
                          8       1    1dxy              2.062000      10.115218
                          8       1    1dxz              2.062000      10.115218
                          8       1    1dy2              2.062000       5.840024
                          8       1    1dyz              2.062000      10.115218
                          8       1    1dz2              2.062000       5.840024

                          9       1    1dx2              0.662000       0.799670
                          9       1    1dxy              0.662000       1.385069
                          9       1    1dxz              0.662000       1.385069
                          9       1    1dy2              0.662000       0.799670
                          9       1    1dyz              0.662000       1.385069
                          9       1    1dz2              0.662000       0.799670

                         10       1    1fx3              1.397000       3.123535
                         10       1    1fx2y             1.397000       6.984436
                         10       1    1fx2z             1.397000       6.984436
                         10       1    1fxy2             1.397000       6.984436
                         10       1    1fxyz             1.397000      12.097399
                         10       1    1fxz2             1.397000       6.984436
                         10       1    1fy3              1.397000       3.123535
                         10       1    1fy2z             1.397000       6.984436
                         10       1    1fyz2             1.397000       6.984436
                         10       1    1fz3              1.397000       3.123535

     AE Potential information for                                            ALL

       Description:                                       All-electron potential
                                          Krack, Parrinello, PCCP 2, 2105 (2000)

       Gaussian exponent of the core charge distribution:              12.500000
       Electronic configuration (s p d ...):                           1   0   0


 MOLECULE KIND INFORMATION


 All atoms are their own molecule, skipping detailed information


 TOTAL NUMBERS AND MAXIMUM NUMBERS

  Total number of            - Atomic kinds:                                   2
                             - Atoms:                                          8
                             - Shell sets:                                    94
                             - Shells:                                        94
                             - Primitive Cartesian functions:                136
                             - Cartesian basis functions:                    354
                             - Spherical basis functions:                    294

  Maximum angular momentum of the orbital basis functions:                     4


 MODULE QUICKSTEP:  ATOMIC COORDINATES IN angstrom

  Atom  Kind  Element       X           Y           Z          Z(eff)       Mass

       1     1 B    5    8.000000    8.000000    8.887000      5.00      10.8110
       2     1 B    5    8.000000    8.000000    7.113000      5.00      10.8110
       3     2 H    1    8.996000    8.000000    8.000000      1.00       1.0079
       4     2 H    1    7.004000    8.000000    8.000000      1.00       1.0079
       5     2 H    1    8.000000    9.040800    9.463900      1.00       1.0079
       6     2 H    1    8.000000    6.959200    9.463900      1.00       1.0079
       7     2 H    1    8.000000    9.040800    6.536100      1.00       1.0079
       8     2 H    1    8.000000    6.959200    6.536100      1.00       1.0079




 SCF PARAMETERS         Density guess:                                   RESTART
                        --------------------------------------------------------
                        max_scf:                                             200
                        max_scf_history:                                       0
                        max_diis:                                              4
                        --------------------------------------------------------
                        eps_scf:                                        1.00E-06
                        eps_scf_history:                                0.00E+00
                        eps_diis:                                       1.00E-01
                        eps_eigval:                                     1.00E-05
                        --------------------------------------------------------
                        level_shift [a.u.]:                                 0.00
                        --------------------------------------------------------
                        Mixing method:                           DIRECT_P_MIXING
                        --------------------------------------------------------
                        No outer SCF

 PW_GRID| Information for grid number                                          1
 PW_GRID| Grid distributed over                                    24 processors
 PW_GRID| Real space group dimensions                                    24    1
 PW_GRID| the grid is blocked:                                                NO
 PW_GRID| Cutoff [a.u.]                                                    400.0
 PW_GRID| spherical cutoff:                                                   NO
 PW_GRID|   Bounds   1           -144     143                Points:         288
 PW_GRID|   Bounds   2           -144     143                Points:         288
 PW_GRID|   Bounds   3           -144     143                Points:         288
 PW_GRID| Volume element (a.u.^3)  0.1157E-02     Volume (a.u.^3)     27641.1785
 PW_GRID| Grid span                                                    FULLSPACE
 PW_GRID|   Distribution                         Average         Max         Min
 PW_GRID|   G-Vectors                           995328.0      995328      995328
 PW_GRID|   G-Rays                                3456.0        3456        3456
 PW_GRID|   Real Space Points                   995328.0      995328      995328

 PW_GRID| Information for grid number                                          2
 PW_GRID| Grid distributed over                                    24 processors
 PW_GRID| Real space group dimensions                                    24    1
 PW_GRID| the grid is blocked:                                                NO
 PW_GRID| Cutoff [a.u.]                                                    200.0
 PW_GRID| spherical cutoff:                                                   NO
 PW_GRID|   Bounds   1           -100      99                Points:         200
 PW_GRID|   Bounds   2           -100      99                Points:         200
 PW_GRID|   Bounds   3           -100      99                Points:         200
 PW_GRID| Volume element (a.u.^3)  0.3455E-02     Volume (a.u.^3)     27641.1785
 PW_GRID| Grid span                                                    FULLSPACE
 PW_GRID|   Distribution                         Average         Max         Min
 PW_GRID|   G-Vectors                           333333.3      333600      333200
 PW_GRID|   G-Rays                                1666.7        1668        1666
 PW_GRID|   Real Space Points                   333333.3      360000      320000

 PW_GRID| Information for grid number                                          3
 PW_GRID| Grid distributed over                                    24 processors
 PW_GRID| Real space group dimensions                                    24    1
 PW_GRID| the grid is blocked:                                                NO
 PW_GRID| Cutoff [a.u.]                                                     66.7
 PW_GRID| spherical cutoff:                                                   NO
 PW_GRID|   Bounds   1            -60      59                Points:         120
 PW_GRID|   Bounds   2            -60      59                Points:         120
 PW_GRID|   Bounds   3            -60      59                Points:         120
 PW_GRID| Volume element (a.u.^3)  0.1600E-01     Volume (a.u.^3)     27641.1785
 PW_GRID| Grid span                                                    FULLSPACE
 PW_GRID|   Distribution                         Average         Max         Min
 PW_GRID|   G-Vectors                            72000.0       72360       71760
 PW_GRID|   G-Rays                                 600.0         603         598
 PW_GRID|   Real Space Points                    72000.0       72000       72000

 PW_GRID| Information for grid number                                          4
 PW_GRID| Grid distributed over                                    24 processors
 PW_GRID| Real space group dimensions                                    24    1
 PW_GRID| the grid is blocked:                                                NO
 PW_GRID| Cutoff [a.u.]                                                     22.2
 PW_GRID| spherical cutoff:                                                   NO
 PW_GRID|   Bounds   1            -36      35                Points:          72
 PW_GRID|   Bounds   2            -36      35                Points:          72
 PW_GRID|   Bounds   3            -36      35                Points:          72
 PW_GRID| Volume element (a.u.^3)  0.7406E-01     Volume (a.u.^3)     27641.1785
[...]
   
            MO      E_SCF       Sigc   Sigc_fit   Sigx-vxc          Z       E_GW
     1 ( occ )   -177.489     -2.579      0.000    -28.752      1.000   -208.820
     2 ( occ )   -177.484     -2.520      0.000    -28.739      1.000   -208.743
     3 ( occ )    -16.417      3.692      0.000     -7.223      1.000    -19.948
     4 ( occ )    -11.225      2.022      0.000     -5.942      1.000    -15.144
     5 ( occ )    -10.554      0.434      0.000     -4.200      1.000    -14.320
     6 ( occ )     -9.399      1.184      0.000     -5.057      1.000    -13.272
     7 ( occ )     -9.035      0.797      0.000     -4.710      1.000    -12.948
     8 ( occ )     -7.863      0.746      0.000     -4.701      1.000    -11.818
     9 ( vir )     -2.037     -2.374      0.000      5.242      1.000      0.830
    10 ( vir )      0.156     -1.324      0.000      3.495      1.000      2.327
    11 ( vir )      0.840     -0.695      0.000      2.342      1.000      2.487
    12 ( vir )      0.998     -0.522      0.000      1.975      1.000      2.451
    13 ( vir )      1.058     -1.182      0.000      3.395      1.000      3.271
    14 ( vir )      1.304     -0.669      0.000      2.422      1.000      3.057
    15 ( vir )      1.901     -0.672      0.000      2.338      1.000      3.566
    16 ( vir )      2.113     -0.443      0.000      1.919      1.000      3.589
    17 ( vir )      2.520     -1.514      0.000      3.915      1.000      4.921
    18 ( vir )      3.020     -0.853      0.000      2.426      1.000      4.593
   
  GW HOMO-LUMO gap (eV)                                                    12.65
  

  Total RI-RPA Time=                                                 1175.975373
  RI-RPA energy  =                                             -0.63413412202396

  Total EXX Time=                                                      22.025817
  EXX energy  =                                                -9.83124204053145

 ENERGY| Total FORCE_EVAL ( QS ) energy (a.u.):              -53.452752460951750


 -------------------------------------------------------------------------------
 -                                                                             -
 -                                DBCSR STATISTICS                             -
 -                                                                             -
 -------------------------------------------------------------------------------
 COUNTER                                    TOTAL       BLAS       SMM       ACC
 flops    57 x     8 x    57               207936     100.0%      0.0%      0.0%
 flops    57 x    57 x     8               311904     100.0%      0.0%      0.0%
 flops    57 x     8 x    30               328320     100.0%      0.0%      0.0%
 flops    30 x     8 x    57               328320     100.0%      0.0%      0.0%
 flops    30 x    57 x     8               328320     100.0%      0.0%      0.0%
 flops    57 x    30 x     8               328320     100.0%      0.0%      0.0%
 flops    30 x     8 x    30               518400     100.0%      0.0%      0.0%
 flops    30 x    30 x     8               604800     100.0%      0.0%      0.0%
 flops    57 x    57 x    57              1481544     100.0%      0.0%      0.0%
 flops   114 x    60 x    57              1559520     100.0%      0.0%      0.0%
 flops    57 x    57 x    30              2339280     100.0%      0.0%      0.0%
 flops    30 x    57 x    57              2339280     100.0%      0.0%      0.0%
 flops    60 x    60 x    57              2462400     100.0%      0.0%      0.0%
 flops   114 x    60 x    30              2462400     100.0%      0.0%      0.0%
 flops   114 x   114 x    57              2963088     100.0%      0.0%      0.0%
 flops   114 x    30 x    57              3119040     100.0%      0.0%      0.0%
 flops    30 x    57 x    30              3693600     100.0%      0.0%      0.0%
 flops    60 x    60 x    30              3888000     100.0%      0.0%      0.0%
 flops   114 x   114 x    30              4678560     100.0%      0.0%      0.0%
 flops    60 x   114 x    57              4678560     100.0%      0.0%      0.0%
 flops    60 x    30 x    57              4924800     100.0%      0.0%      0.0%
 flops   114 x    30 x    30              4924800     100.0%      0.0%      0.0%
 flops    60 x   114 x    30              7387200     100.0%      0.0%      0.0%
 flops    60 x    30 x    30              7776000     100.0%      0.0%      0.0%
 flops   193 x   193 x   193           1610348768     100.0%      0.0%      0.0%
 flops   193 x   193 x    91           2277850848     100.0%      0.0%      0.0%
 flops    91 x   193 x   193           2277850848     100.0%      0.0%      0.0%
 flops   193 x    91 x   193           2277850848     100.0%      0.0%      0.0%
 flops   386 x    60 x    57           2661361920     100.0%      0.0%      0.0%
 flops    91 x    91 x   193           3222037728     100.0%      0.0%      0.0%
 flops    91 x   193 x    91           3222037728     100.0%      0.0%      0.0%
 flops   193 x    91 x    91           3222037728     100.0%      0.0%      0.0%
 flops   182 x    60 x    57           3764517120     100.0%      0.0%      0.0%
 flops   386 x    60 x    30           4202150400     100.0%      0.0%      0.0%
 flops   386 x    60 x   193           4505639040     100.0%      0.0%      0.0%
 flops    91 x    91 x    91           4557597408     100.0%      0.0%      0.0%
 flops   386 x   114 x    57           5056587648     100.0%      0.0%      0.0%
 flops   386 x    30 x    57           5322723840     100.0%      0.0%      0.0%
 flops   182 x    60 x    30           5943974400     100.0%      0.0%      0.0%
 flops   182 x    60 x   193           6373261440     100.0%      0.0%      0.0%
 flops   386 x    60 x    91           6373261440     100.0%      0.0%      0.0%
 flops   182 x   114 x    57           7152582528     100.0%      0.0%      0.0%
 flops   182 x    30 x    57           7529034240     100.0%      0.0%      0.0%
 flops   386 x   114 x    30           7984085760     100.0%      0.0%      0.0%
 flops   386 x    30 x    30           8404300800     100.0%      0.0%      0.0%
 flops   386 x   114 x   193           8560714176     100.0%      0.0%      0.0%
 flops   386 x    30 x   193           9011278080     100.0%      0.0%      0.0%
 flops   182 x    60 x    91           9015027840     100.0%      0.0%      0.0%
 flops   182 x   114 x    30          11293551360     100.0%      0.0%      0.0%
 flops   182 x    30 x    30          11887948800     100.0%      0.0%      0.0%
 flops   386 x   114 x    91          12109196736     100.0%      0.0%      0.0%
 flops   182 x   114 x   193          12109196736     100.0%      0.0%      0.0%
 flops   182 x    30 x   193          12746522880     100.0%      0.0%      0.0%
 flops   386 x    30 x    91          12746522880     100.0%      0.0%      0.0%
 flops    57 x  2166 x    57          12836097216     100.0%      0.0%      0.0%
 flops   182 x   114 x    91          17128552896     100.0%      0.0%      0.0%
 flops   182 x    30 x    91          18030055680     100.0%      0.0%      0.0%
 flops    30 x  2166 x    57          19911951360     100.0%      0.0%      0.0%
 flops    57 x  1140 x    57          20267521920     100.0%      0.0%      0.0%
 flops    57 x  2166 x    30          20267521920     100.0%      0.0%      0.0%
 flops    30 x  1140 x    57          31439923200     100.0%      0.0%      0.0%
 flops    30 x  2166 x    30          31439923200     100.0%      0.0%      0.0%
 flops    57 x  1140 x    30          32001350400     100.0%      0.0%      0.0%
 flops    30 x  1140 x    30          49641984000     100.0%      0.0%      0.0%
 flops    57 x  2223 x    57          65869446240     100.0%      0.0%      0.0%
 flops    30 x  2223 x    57         102179750400     100.0%      0.0%      0.0%
 flops    57 x  1170 x    57         104004388800     100.0%      0.0%      0.0%
 flops    57 x  2223 x    30         104004388800     100.0%      0.0%      0.0%
 flops    30 x  1170 x    57         161336448000     100.0%      0.0%      0.0%
 flops    30 x  2223 x    30         161336448000     100.0%      0.0%      0.0%
 flops    57 x  1170 x    30         164217456000     100.0%      0.0%      0.0%
 flops   193 x   193 x  3577         179074120512     100.0%      0.0%      0.0%
 flops   193 x   193 x  3626         181527190656     100.0%      0.0%      0.0%
 flops   193 x    91 x  3577         253301735232     100.0%      0.0%      0.0%
 flops    91 x   193 x  3577         253301735232     100.0%      0.0%      0.0%
 flops    30 x  1170 x    30         254741760000     100.0%      0.0%      0.0%
 flops   193 x    91 x  3626         256771622016     100.0%      0.0%      0.0%
 flops    91 x   193 x  3626         256771622016     100.0%      0.0%      0.0%
 flops    91 x    91 x  3577         358297273152     100.0%      0.0%      0.0%
 flops    91 x    91 x  3626         363205454976     100.0%      0.0%      0.0%
 flops inhomo. stacks                           0       0.0%      0.0%      0.0%
 flops total                         3.670390E+12     100.0%      0.0%      0.0%
 flops max/rank                    181.685256E+09     100.0%      0.0%      0.0%
 matmuls inhomo. stacks                         0       0.0%      0.0%      0.0%
 matmuls total                             519816     100.0%      0.0%      0.0%
 number of processed stacks                154960     100.0%      0.0%      0.0%
 average stack size                                     3.4       0.0       0.0
 marketing flops                     3.708585E+12
 -------------------------------------------------------------------------------
 # multiplications                            818
 max memory usage/rank               1.097716E+09
 # max total images/rank                        3
 # max 3D layers                                1
 # MPI messages exchanged                  353400
 MPI messages size (bytes):
  total size                        17.774113E+09
  min size                           0.000000E+00
  max size                         595.984000E+03
  average size                      50.294602E+03
 MPI breakdown and total messages size (bytes):
             size <=      128              118572                        0
       128 < size <=     8192               36460                262149504
      8192 < size <=    32768               51948               1033780752
     32768 < size <=   131072               96300               5857528896
    131072 < size <=  4194304               50120              10620495872
   4194304 < size <= 16777216                   0                        0
  16777216 < size                               0                        0
 -------------------------------------------------------------------------------

 *** WARNING in dbcsr_mm.F:278 :: Using a non-square number of MPI ranks ***
 *** might lead to poor performance. Used ranks: 24 Suggested: 25 49     ***

 -------------------------------------------------------------------------------
 -                                                                             -
 -                      DBCSR MESSAGE PASSING PERFORMANCE                      -
 -                                                                             -
 -------------------------------------------------------------------------------

 ROUTINE             CALLS      AVE VOLUME [Bytes]
 MP_Group               26
 MP_Bcast               81                     12.
 MP_Allreduce         4757                      9.
 MP_Alltoall          2428                  57885.
 MP_Wait             44432
 MP_ISend            32722                  43317.
 MP_IRecv            32750                  29420.
 MP_Memory           59846
 -------------------------------------------------------------------------------


 MEMORY| Estimated peak process memory [MiB]                                 991

 -------------------------------------------------------------------------------
 ----                             MULTIGRID INFO                            ----
 -------------------------------------------------------------------------------
 count for grid        1:         121413          cutoff [a.u.]          200.00
 count for grid        2:          38558          cutoff [a.u.]           66.67
 count for grid        3:          18504          cutoff [a.u.]           22.22
 count for grid        4:           5391          cutoff [a.u.]            7.41
 total gridlevel count  :         183866

 -------------------------------------------------------------------------------
 -                                                                             -
 -                         MESSAGE PASSING PERFORMANCE                         -
 -                                                                             -
 -------------------------------------------------------------------------------

 ROUTINE             CALLS      AVE VOLUME [Bytes]
 MP_Group                5
 MP_Bcast              210                2707847.
 MP_Allreduce          377                  30876.
 MP_Sync                72
 MP_Alltoall           123                3784047.
 MP_ISendRecv          276                  63172.
 MP_Wait               940
 MP_comm_split          10
 MP_ISend             3850                 283895.
 MP_IRecv             3820                 355637.
 MP_Recv                 3                   4704.
 -------------------------------------------------------------------------------


 -------------------------------------------------------------------------------
 -                                                                             -
 -                           R E F E R E N C E S                               -
 -                                                                             -
 -------------------------------------------------------------------------------
 
 CP2K version 7.0 (Development Version), the CP2K developers group (2018).
 CP2K is freely available from https://www.cp2k.org/ .

 Schuett, Ole; Messmer, Peter; Hutter, Juerg; VandeVondele, Joost. 
 Electronic Structure Calculations on Graphics Processing Units, John Wiley & Sons, Ltd, 173-190 (2016). 
 GPU-Accelerated Sparse Matrix-Matrix Multiplication for Linear Scaling Density Functional Theory.
 https://dx.doi.org/10.1002/9781118670712.ch8


 Del Ben, M; Schuett, O; Wentz, T; Messmer, P; Hutter, J;
 VandeVondele, J. 
 COMPUTER PHYSICS COMMUNICATIONS, 187, 120-129 (2015). 
 Enabling simulation at the fifth rung of DFT: Large scale RPA
 calculations with excellent time to solution.
 https://dx.doi.org/10.1016/j.cpc.2014.10.021


 Borstnik, U; VandeVondele, J; Weber, V; Hutter, J. 
 PARALLEL COMPUTING, 40 (5-6), 47-58 (2014). 
 Sparse matrix multiplication: The distributed block-compressed sparse
 row library.
 https://dx.doi.org/10.1016/j.parco.2014.03.012


 Hutter, J; Iannuzzi, M; Schiffmann, F; VandeVondele, J. 
 WILEY INTERDISCIPLINARY REVIEWS-COMPUTATIONAL MOLECULAR SCIENCE, 4 (1), 15-25 (2014). 
 CP2K: atomistic simulations of condensed matter systems.
 https://dx.doi.org/10.1002/wcms.1159


 Del Ben, M; Hutter, J; VandeVondele, J. 
 JOURNAL OF CHEMICAL THEORY AND COMPUTATION, 9 (6), 2654-2671 (2013). 
 Electron Correlation in the Condensed Phase from a Resolution of
 Identity Approach Based on the Gaussian and Plane Waves Scheme.
 https://dx.doi.org/10.1021/ct4002202


 Del Ben, M; Hutter, J; VandeVondele, J. 
 JOURNAL OF CHEMICAL THEORY AND COMPUTATION, 8 (11), 4177-4188 (2012). 
 Second-Order Moller-Plesset Perturbation Theory in the Condensed Phase:
 An Efficient and Massively Parallel Gaussian and Plane Waves Approach.
 https://dx.doi.org/10.1021/ct300531w


 Guidon, M; Hutter, J; VandeVondele, J. 
 JOURNAL OF CHEMICAL THEORY AND COMPUTATION, 5 (11), 3010-3021 (2009). 
 Robust Periodic Hartree-Fock Exchange for Large-Scale Simulations Using
 Gaussian Basis Sets.
 https://dx.doi.org/10.1021/ct900494g


 Guidon, M; Schiffmann, F; Hutter, J; VandeVondele, J. 
 JOURNAL OF CHEMICAL PHYSICS, 128 (21), 214104 (2008). 
 Ab initio molecular dynamics using hybrid density functionals.
 https://dx.doi.org/10.1063/1.2931945


 Frigo, M; Johnson, SG. 
 PROCEEDINGS OF THE IEEE, 93 (2), 216-231 (2005). 
 The design and implementation of FFTW3.
 https://dx.doi.org/10.1109/JPROC.2004.840301


 Lippert, G; Hutter, J; Parrinello, M. 
 THEORETICAL CHEMISTRY ACCOUNTS, 103 (2), 124-140 (1999). 
 The Gaussian and augmented-plane-wave density functional method for ab
 initio molecular dynamics simulations.
 https://dx.doi.org/10.1007/s002140050523


 Krack, M; Parrinello, M. 
 PHYSICAL CHEMISTRY CHEMICAL PHYSICS, 2 (10), 2105-2112 (2000). 
 All-electron ab-initio molecular dynamics.
 https://dx.doi.org/10.1039/b001167n


 Martyna, GJ; Tuckerman, ME. 
 JOURNAL OF CHEMICAL PHYSICS, 110 (6), 2810-2821 (1999). 
 A reciprocal space based method for treating long range interactions in
 ab initio and force-field-based calculations in clusters.
 https://dx.doi.org/10.1063/1.477923


 Perdew, JP; Burke, K; Ernzerhof, M. 
 PHYSICAL REVIEW LETTERS, 77 (18), 3865-3868 (1996). 
 Generalized gradient approximation made simple.
 https://dx.doi.org/10.1103/PhysRevLett.77.3865


 -------------------------------------------------------------------------------
 -                                                                             -
 -                                T I M I N G                                  -
 -                                                                             -
 -------------------------------------------------------------------------------
 SUBROUTINE                       CALLS  ASD         SELF TIME        TOTAL TIME
                                MAXIMUM       AVERAGE  MAXIMUM  AVERAGE  MAXIMUM
 CP2K                                 1  1.0    0.010    0.014 1204.532 1204.533
 qs_energies                          1  2.0    0.000    0.000 1202.968 1202.969
 mp2_main                             1  3.0    0.000    0.001 1198.031 1198.033
 mp2_gpw_main                         1  4.0    0.000    0.001 1175.974 1175.975
 mp2_ri_gpw_compute_in                1  5.0    0.000    0.000  746.265  767.053
 compute_low_sc_3c_integrals          1  6.0  218.869  226.999  738.591  759.385
 compute_low_sc_3c_integrals_pu  344604  7.0  515.662  530.418  515.662  530.418
 rpa_ri_compute_en                    1  5.0    0.000    0.000  408.915  408.916
 rpa_num_int                          1  6.0    0.001    0.002  408.908  408.910
 dbcsr_multiply_generic             818  9.9    0.047    0.050  221.015  224.385
 compute_mat_P_omega                  1  7.0    0.001    0.001  219.363  219.364
 multiply_cannon                    818 10.9    0.146    0.164  209.696  213.039
 multiply_cannon_multrec           9343 11.9  201.503  207.897  201.956  208.339
 compute_mat_P_omega_calc_P          14  8.0    0.001    0.001  183.964  184.099
 get_l_sq_wghts_sin_tf_t_to_w         2  7.0   79.005   80.047   80.084   80.086
 get_l_sq_wghts_cos_tf_t_to_w         2  7.0   79.025   80.069   80.077   80.078
 mp_comm_split_direct                 8  6.6   22.800   65.733   22.800   65.733
 create_dbcsr_matrices_im_time        1  5.0    0.001    0.001   20.792   63.427
 -------------------------------------------------------------------------------

 The number of warnings for this run is : 1
 
 -------------------------------------------------------------------------------
  **** **** ******  **  PROGRAM ENDED AT                 2019-06-07 05:58:32.170
 ***** ** ***  *** **   PROGRAM RAN ON                                    tcopt4
 **    ****   ******    PROGRAM RAN BY                                   wilhelm
 ***** **    ** ** **   PROGRAM PROCESS ID                                 56383
  **** **  *******  **  PROGRAM STOPPED IN /data/wilhelm/2_job_test/11_GW100/3_c
                                           alcs/46_B2H6
