 DBCSR| CPU Multiplication driver                                           BLAS
 DBCSR| Multrec recursion limit                                              512
 DBCSR| Multiplication stack size                                           1000
 DBCSR| Maximum elements for images                                    UNLIMITED
 DBCSR| Multiplicative factor virtual images                                   1
 DBCSR| Use multiplication densification                                       T
 DBCSR| Multiplication size stacks                                             3
 DBCSR| Number of 3D layers                                               SINGLE
 DBCSR| Use MPI memory allocation                                              T
 DBCSR| Use RMA algorithm                                                      F
 DBCSR| Use Communication thread                                               T
 DBCSR| Communication thread load                                             87


  **** **** ******  **  PROGRAM STARTED AT               2019-06-07 20:31:37.437
 ***** ** ***  *** **   PROGRAM STARTED ON                                tcopt4
 **    ****   ******    PROGRAM STARTED BY                               wilhelm
 ***** **    ** ** **   PROGRAM PROCESS ID                                 96397
  **** **  *******  **  PROGRAM STARTED IN /data/wilhelm/2_job_test/11_GW100/3_c
                                           alcs/76_H2O

 CP2K| version string:                    CP2K version 7.0 (Development Version)
 CP2K| source code revision number:                                  git:bc2813a
 CP2K| cp2kflags: libint fftw3 libxc pexsi elpa=201705 parallel mpi3 scalapack q
 CP2K|            uip libderiv_max_am1=5 libint_max_am=6
 CP2K| is freely available from                            https://www.cp2k.org/
 CP2K| Program compiled at                         Sun Jun  2 14:38:23 CEST 2019
 CP2K| Program compiled on                                                tcopt4
 CP2K| Program compiled for                            local_valgrind_March_2019
 CP2K| Data directory path              /data/wilhelm/1_git_repository/cp2k/data
 CP2K| Input file name                                                    GW.inp

 GLOBAL| Force Environment number                                              1
 GLOBAL| Basis set file name                              BASIS_def2_QZVP_RI_ALL
 GLOBAL| Potential file name                                           POTENTIAL
 GLOBAL| MM Potential file name                                     MM_POTENTIAL
 GLOBAL| Coordinate file name                                         76_H2O.xyz
 GLOBAL| Method name                                                        CP2K
 GLOBAL| Project name                                                   ALL_ELEC
 GLOBAL| Preferred FFT library                                             FFTW3
 GLOBAL| Preferred diagonalization lib.                                       SL
 GLOBAL| Run type                                                         ENERGY
 GLOBAL| All-to-all communication in single precision                          F
 GLOBAL| FFTs using library dependent lengths                                  F
 GLOBAL| Global print level                                               MEDIUM
 GLOBAL| MPI I/O enabled                                                       T
 GLOBAL| Total number of message passing processes                            24
 GLOBAL| Number of threads for this process                                    1
 GLOBAL| This output is from process                                           0
 GLOBAL| CPU model name :  Intel(R) Xeon(R) CPU E5-2697 v3 @ 2.60GHz

 MEMORY| system memory details [Kb]
 MEMORY|                        rank 0           min           max       average
 MEMORY| MemTotal            396954008     396954008     396954008     396954008
 MEMORY| MemFree             336249084     336249084     336249084     336249084
 MEMORY| Buffers                341624        341624        341624        341624
 MEMORY| Cached               41435320      41435320      41435320      41435320
 MEMORY| Slab                  1448692       1448692       1448692       1448692
 MEMORY| SReclaimable          1303920       1303920       1303920       1303920
 MEMORY| MemLikelyFree       379329948     379329948     379329948     379329948


 *** Fundamental physical constants (SI units) ***

 *** Literature: B. J. Mohr and B. N. Taylor,
 ***             CODATA recommended values of the fundamental physical
 ***             constants: 2006, Web Version 5.1
 ***             http://physics.nist.gov/constants

 Speed of light in vacuum [m/s]                             2.99792458000000E+08
 Magnetic constant or permeability of vacuum [N/A**2]       1.25663706143592E-06
 Electric constant or permittivity of vacuum [F/m]          8.85418781762039E-12
 Planck constant (h) [J*s]                                  6.62606896000000E-34
 Planck constant (h-bar) [J*s]                              1.05457162825177E-34
 Elementary charge [C]                                      1.60217648700000E-19
 Electron mass [kg]                                         9.10938215000000E-31
 Electron g factor [ ]                                     -2.00231930436220E+00
 Proton mass [kg]                                           1.67262163700000E-27
 Fine-structure constant                                    7.29735253760000E-03
 Rydberg constant [1/m]                                     1.09737315685270E+07
 Avogadro constant [1/mol]                                  6.02214179000000E+23
 Boltzmann constant [J/K]                                   1.38065040000000E-23
 Atomic mass unit [kg]                                      1.66053878200000E-27
 Bohr radius [m]                                            5.29177208590000E-11

 *** Conversion factors ***

 [u] -> [a.u.]                                              1.82288848426455E+03
 [Angstrom] -> [Bohr] = [a.u.]                              1.88972613288564E+00
 [a.u.] = [Bohr] -> [Angstrom]                              5.29177208590000E-01
 [a.u.] -> [s]                                              2.41888432650478E-17
 [a.u.] -> [fs]                                             2.41888432650478E-02
 [a.u.] -> [J]                                              4.35974393937059E-18
 [a.u.] -> [N]                                              8.23872205491840E-08
 [a.u.] -> [K]                                              3.15774647902944E+05
 [a.u.] -> [kJ/mol]                                         2.62549961709828E+03
 [a.u.] -> [kcal/mol]                                       6.27509468713739E+02
 [a.u.] -> [Pa]                                             2.94210107994716E+13
 [a.u.] -> [bar]                                            2.94210107994716E+08
 [a.u.] -> [atm]                                            2.90362800883016E+08
 [a.u.] -> [eV]                                             2.72113838565563E+01
 [a.u.] -> [Hz]                                             6.57968392072181E+15
 [a.u.] -> [1/cm] (wave numbers)                            2.19474631370540E+05
 [a.u./Bohr**2] -> [1/cm]                                   5.14048714338585E+03
 

 CELL_TOP| Volume [angstrom^3]:                                         4096.000
 CELL_TOP| Vector a [angstrom    16.000     0.000     0.000    |a| =      16.000
 CELL_TOP| Vector b [angstrom     0.000    16.000     0.000    |b| =      16.000
 CELL_TOP| Vector c [angstrom     0.000     0.000    16.000    |c| =      16.000
 CELL_TOP| Angle (b,c), alpha [degree]:                                   90.000
 CELL_TOP| Angle (a,c), beta  [degree]:                                   90.000
 CELL_TOP| Angle (a,b), gamma [degree]:                                   90.000
 CELL_TOP| Numerically orthorhombic:                                         YES

 GENERATE|  Preliminary Number of Bonds generated:                             0
 GENERATE|  Achieved consistency in connectivity generation.

 CELL| Volume [angstrom^3]:                                             4096.000
 CELL| Vector a [angstrom]:      16.000     0.000     0.000    |a| =      16.000
 CELL| Vector b [angstrom]:       0.000    16.000     0.000    |b| =      16.000
 CELL| Vector c [angstrom]:       0.000     0.000    16.000    |c| =      16.000
 CELL| Angle (b,c), alpha [degree]:                                       90.000
 CELL| Angle (a,c), beta  [degree]:                                       90.000
 CELL| Angle (a,b), gamma [degree]:                                       90.000
 CELL| Numerically orthorhombic:                                             YES

 CELL_REF| Volume [angstrom^3]:                                         4096.000
 CELL_REF| Vector a [angstrom    16.000     0.000     0.000    |a| =      16.000
 CELL_REF| Vector b [angstrom     0.000    16.000     0.000    |b| =      16.000
 CELL_REF| Vector c [angstrom     0.000     0.000    16.000    |c| =      16.000
 CELL_REF| Angle (b,c), alpha [degree]:                                   90.000
 CELL_REF| Angle (a,c), beta  [degree]:                                   90.000
 CELL_REF| Angle (a,b), gamma [degree]:                                   90.000
 CELL_REF| Numerically orthorhombic:                                         YES

 *******************************************************************************
 *******************************************************************************
 **                                                                           **
 **     #####                         ##              ##                      **
 **    ##   ##            ##          ##              ##                      **
 **   ##     ##                       ##            ######                    **
 **   ##     ##  ##   ##  ##   #####  ##  ##   ####   ##    #####    #####    **
 **   ##     ##  ##   ##  ##  ##      ## ##   ##      ##   ##   ##  ##   ##   **
 **   ##  ## ##  ##   ##  ##  ##      ####     ###    ##   ######   ######    **
 **    ##  ###   ##   ##  ##  ##      ## ##      ##   ##   ##       ##        **
 **     #######   #####   ##   #####  ##  ##  ####    ##    #####   ##        **
 **           ##                                                    ##        **
 **                                                                           **
 **                                                ... make the atoms dance   **
 **                                                                           **
 **            Copyright (C) by CP2K developers group (2000 - 2019)           **
 **                                                                           **
 *******************************************************************************

 DFT| Spin restricted Kohn-Sham (RKS) calculation                            RKS
 DFT| Multiplicity                                                             1
 DFT| Number of spin states                                                    1
 DFT| Charge                                                                   0
 DFT| Self-interaction correction (SIC)                                       NO
 DFT| Cutoffs: density                                              1.000000E-10
 DFT|          gradient                                             1.000000E-10
 DFT|          tau                                                  1.000000E-10
 DFT|          cutoff_smoothing_range                               0.000000E+00
 DFT| XC density smoothing                                                  NONE
 DFT| XC derivatives                                                          PW
 FUNCTIONAL| ROUTINE=NEW
 FUNCTIONAL| PBE:
 FUNCTIONAL| J.P.Perdew, K.Burke, M.Ernzerhof, Phys. Rev. Letter, vol. 77, n 18,
 FUNCTIONAL|  pp. 3865-3868, (1996){spin unpolarized}                           

 QS| Method:                                                                GAPW
 QS| Density plane wave grid type                        NON-SPHERICAL FULLSPACE
 QS| Number of grid levels:                                                    4
 QS| Density cutoff [a.u.]:                                                200.0
 QS| Multi grid cutoff [a.u.]: 1) grid level                               200.0
 QS|                           2) grid level                                66.7
 QS|                           3) grid level                                22.2
 QS|                           4) grid level                                 7.4
 QS| Grid level progression factor:                                          3.0
 QS| Relative density cutoff [a.u.]:                                        25.0
 QS| Consistent realspace mapping and integration 
 QS| Interaction thresholds: eps_pgf_orb:                                1.0E-05
 QS|                         eps_filter_matrix:                          0.0E+00
 QS|                         eps_core_charge:                            1.0E-12
 QS|                         eps_rho_gspace:                             1.0E-10
 QS|                         eps_rho_rspace:                             1.0E-10
 QS|                         eps_gvg_rspace:                             1.0E-05
 QS|                         eps_ppl:                                    1.0E-02
 QS|                         eps_ppnl:                                   1.0E-07
 QS| GAPW|                   eps_fit:                                    1.0E-04
 QS| GAPW|                   eps_iso:                                    1.0E-12
 QS| GAPW|                   eps_svd:                                    1.0E-08
 QS| GAPW|                   eps_cpc:                                    1.0E-10
 QS| GAPW|   atom-r-grid: quadrature:                 GC_LOG                        
 QS| GAPW|      atom-s-grid:  max l :                                          8
 QS| GAPW|      max_l_rho0 :                                                   2


 ATOMIC KIND INFORMATION

  1. Atomic kind: O                                     Number of atoms:       1

     Orbital Basis Set                                                 def2-QZVP

       Number of orbital shell sets:                                          17
       Number of orbital shells:                                              17
       Number of primitive Cartesian functions:                               29
       Number of Cartesian basis functions:                                   72
       Number of spherical basis functions:                                   57
       Norm type:                                                              2

       Normalised Cartesian orbitals:

                        Set   Shell   Orbital            Exponent    Coefficient

                          1       1    1s           116506.469080       0.323542
                                                     17504.349724       0.604284
                                                      3993.451323       1.042947
                                                      1133.006319       1.694135
                                                       369.995696       2.585616
                                                       133.620743       3.631450
                                                        52.035644       4.414414
                                                        21.461939       4.188022

                          2       1    1s               89.835051       1.972527
                                                        26.428011       7.687249

                          3       1    1s                9.282282       3.790104

                          4       1    1s                4.094773       2.051552

                          5       1    1s                1.325535       0.880448

                          6       1    1s                0.518772       0.435655

                          7       1    1s                0.197727       0.211329

                          8       1    1px             191.152558       2.569255
                                                        45.233357       3.383308
                                                        14.353466       3.764009
                                                         5.242237       3.495516
                                                         2.079242       2.436773
                          8       1    1py             191.152558       2.569255
                                                        45.233357       3.383308
                                                        14.353466       3.764009
                                                         5.242237       3.495516
                                                         2.079242       2.436773
                          8       1    1pz             191.152558       2.569255
                                                        45.233357       3.383308
                                                        14.353466       3.764009
                                                         5.242237       3.495516
                                                         2.079242       2.436773

                          9       1    1px               0.842824       1.151095
                          9       1    1py               0.842824       1.151095
                          9       1    1pz               0.842824       1.151095

                         10       1    1px               0.336177       0.364880
                         10       1    1py               0.336177       0.364880
                         10       1    1pz               0.336177       0.364880

                         11       1    1px               0.128640       0.109815
                         11       1    1py               0.128640       0.109815
                         11       1    1pz               0.128640       0.109815

                         12       1    1dx2              3.775000      16.827288
                         12       1    1dxy              3.775000      29.145718
                         12       1    1dxz              3.775000      29.145718
                         12       1    1dy2              3.775000      16.827288
                         12       1    1dyz              3.775000      29.145718
                         12       1    1dz2              3.775000      16.827288

                         13       1    1dx2              1.300000       2.605016
                         13       1    1dxy              1.300000       4.512019
                         13       1    1dxz              1.300000       4.512019
                         13       1    1dy2              1.300000       2.605016
                         13       1    1dyz              1.300000       4.512019
                         13       1    1dz2              1.300000       2.605016

                         14       1    1dx2              0.444000       0.397493
                         14       1    1dxy              0.444000       0.688478
                         14       1    1dxz              0.444000       0.688478
                         14       1    1dy2              0.444000       0.397493
                         14       1    1dyz              0.444000       0.688478
                         14       1    1dz2              0.444000       0.397493

                         15       1    1fx3              2.666000      13.370258
                         15       1    1fx2y             2.666000      29.896805
                         15       1    1fx2z             2.666000      29.896805
                         15       1    1fxy2             2.666000      29.896805
                         15       1    1fxyz             2.666000      51.782785
                         15       1    1fxz2             2.666000      29.896805
                         15       1    1fy3              2.666000      13.370258
                         15       1    1fy2z             2.666000      29.896805
                         15       1    1fyz2             2.666000      29.896805
                         15       1    1fz3              2.666000      13.370258

                         16       1    1fx3              0.859000       1.045777
                         16       1    1fx2y             0.859000       2.338428
                         16       1    1fx2z             0.859000       2.338428
                         16       1    1fxy2             0.859000       2.338428
                         16       1    1fxyz             0.859000       4.050277
                         16       1    1fxz2             0.859000       2.338428
                         16       1    1fy3              0.859000       1.045777
                         16       1    1fy2z             0.859000       2.338428
                         16       1    1fyz2             0.859000       2.338428
                         16       1    1fz3              0.859000       1.045777

                         17       1    1gx4              1.846000       6.005824
                         17       1    1gx3y             1.846000      15.889916
                         17       1    1gx3z             1.846000      15.889916
                         17       1    1gx2y2            1.846000      20.513794
                         17       1    1gx2yz            1.846000      35.530933
                         17       1    1gx2z2            1.846000      20.513794
                         17       1    1gxy3             1.846000      15.889916
                         17       1    1gxy2z            1.846000      35.530933
                         17       1    1gxyz2            1.846000      35.530933
                         17       1    1gxz3             1.846000      15.889916
                         17       1    1gy4              1.846000       6.005824
                         17       1    1gy3z             1.846000      15.889916
                         17       1    1gy2z2            1.846000      20.513794
                         17       1    1gyz3             1.846000      15.889916
                         17       1    1gz4              1.846000       6.005824

     RI Auxiliary Basis Set                                                RI-5Z

       Number of orbital shell sets:                                          38
       Number of orbital shells:                                              38
       Number of primitive Cartesian functions:                               38
       Number of Cartesian basis functions:                                  259
       Number of spherical basis functions:                                  180
       Norm type:                                                              2

       Normalised Cartesian orbitals:

                        Set   Shell   Orbital            Exponent    Coefficient

                          1       1    1s              488.561000      74.062640

                          2       1    1s              105.279000      23.424288

                          3       1    1s               28.708200       8.839233

                          4       1    1s               14.825500       5.384769

                          5       1    1s                5.831540       2.674530

                          6       1    1s                3.595370       1.860878

                          7       1    1s                1.940030       1.171565

                          8       1    1s                1.058590       0.743800

                          9       1    1s                0.474911       0.407727

                         10       1    1s                0.251005       0.252739

                         11       1    1px              94.256600     418.629472
                         11       1    1py              94.256600     418.629472
                         11       1    1pz              94.256600     418.629472

                         12       1    1px              25.465100      81.540209
                         12       1    1py              25.465100      81.540209
                         12       1    1pz              25.465100      81.540209

                         13       1    1px              11.049300      28.714982
                         13       1    1py              11.049300      28.714982
                         13       1    1pz              11.049300      28.714982

                         14       1    1px               4.708760       9.887199
                         14       1    1py               4.708760       9.887199
                         14       1    1pz               4.708760       9.887199

                         15       1    1px               2.756880       5.063635
                         15       1    1py               2.756880       5.063635
                         15       1    1pz               2.756880       5.063635

                         16       1    1px               1.274280       1.929839
                         16       1    1py               1.274280       1.929839
                         16       1    1pz               1.274280       1.929839

                         17       1    1px               0.696641       0.907197
                         17       1    1py               0.696641       0.907197
                         17       1    1pz               0.696641       0.907197

                         18       1    1px               0.416519       0.476962
                         18       1    1py               0.416519       0.476962
                         18       1    1pz               0.416519       0.476962

                         19       1    1dx2             21.988200     367.486504
                         19       1    1dxy             21.988200     636.505295
                         19       1    1dxz             21.988200     636.505295
                         19       1    1dy2             21.988200     367.486504
                         19       1    1dyz             21.988200     636.505295
                         19       1    1dz2             21.988200     367.486504

                         20       1    1dx2              7.274420      53.034271
                         20       1    1dxy              7.274420      91.858053
                         20       1    1dxz              7.274420      91.858053
                         20       1    1dy2              7.274420      53.034271
                         20       1    1dyz              7.274420      91.858053
                         20       1    1dz2              7.274420      53.034271

                         21       1    1dx2              4.518780      23.051360
                         21       1    1dxy              4.518780      39.926127
                         21       1    1dxz              4.518780      39.926127
                         21       1    1dy2              4.518780      23.051360
                         21       1    1dyz              4.518780      39.926127
                         21       1    1dz2              4.518780      23.051360

                         22       1    1dx2              2.719410       9.478512
                         22       1    1dxy              2.719410      16.417264
                         22       1    1dxz              2.719410      16.417264
                         22       1    1dy2              2.719410       9.478512
                         22       1    1dyz              2.719410      16.417264
                         22       1    1dz2              2.719410       9.478512

                         23       1    1dx2              1.442130       3.123685
                         23       1    1dxy              1.442130       5.410380
                         23       1    1dxz              1.442130       5.410380
                         23       1    1dy2              1.442130       3.123685
                         23       1    1dyz              1.442130       5.410380
                         23       1    1dz2              1.442130       3.123685

                         24       1    1dx2              0.719024       0.924082
                         24       1    1dxy              0.719024       1.600557
                         24       1    1dxz              0.719024       1.600557
                         24       1    1dy2              0.719024       0.924082
                         24       1    1dyz              0.719024       1.600557
                         24       1    1dz2              0.719024       0.924082

                         25       1    1dx2              0.303063       0.203747
                         25       1    1dxy              0.303063       0.352901
                         25       1    1dxz              0.303063       0.352901
                         25       1    1dy2              0.303063       0.203747
                         25       1    1dyz              0.303063       0.352901
                         25       1    1dz2              0.303063       0.203747

                         26       1    1fx3             14.098700     567.031722
                         26       1    1fx2y            14.098700    1267.921477
                         26       1    1fx2z            14.098700    1267.921477
                         26       1    1fxy2            14.098700    1267.921477
                         26       1    1fxyz            14.098700    2196.104418
                         26       1    1fxz2            14.098700    1267.921477
                         26       1    1fy3             14.098700     567.031722
                         26       1    1fy2z            14.098700    1267.921477
                         26       1    1fyz2            14.098700    1267.921477
                         26       1    1fz3             14.098700     567.031722

                         27       1    1fx3              6.442910      97.361912
                         27       1    1fx2y             6.442910     217.707854
                         27       1    1fx2z             6.442910     217.707854
                         27       1    1fxy2             6.442910     217.707854
                         27       1    1fxyz             6.442910     377.081065
                         27       1    1fxz2             6.442910     217.707854
                         27       1    1fy3              6.442910      97.361912
                         27       1    1fy2z             6.442910     217.707854
                         27       1    1fyz2             6.442910     217.707854
                         27       1    1fz3              6.442910      97.361912

                         28       1    1fx3              3.721040      28.310609
                         28       1    1fx2y             3.721040      63.304446
                         28       1    1fx2z             3.721040      63.304446
                         28       1    1fxy2             3.721040      63.304446
                         28       1    1fxyz             3.721040     109.646517
                         28       1    1fxz2             3.721040      63.304446
                         28       1    1fy3              3.721040      28.310609
                         28       1    1fy2z             3.721040      63.304446
                         28       1    1fyz2             3.721040      63.304446
                         28       1    1fz3              3.721040      28.310609

                         29       1    1fx3              2.093740       7.763019
                         29       1    1fx2y             2.093740      17.358638
                         29       1    1fx2z             2.093740      17.358638
                         29       1    1fxy2             2.093740      17.358638
                         29       1    1fxyz             2.093740      30.066042
                         29       1    1fxz2             2.093740      17.358638
                         29       1    1fy3              2.093740       7.763019
                         29       1    1fy2z             2.093740      17.358638
                         29       1    1fyz2             2.093740      17.358638
                         29       1    1fz3              2.093740       7.763019

                         30       1    1fx3              1.185310       2.158124
                         30       1    1fx2y             1.185310       4.825711
                         30       1    1fx2z             1.185310       4.825711
                         30       1    1fxy2             1.185310       4.825711
                         30       1    1fxyz             1.185310       8.358377
                         30       1    1fxz2             1.185310       4.825711
                         30       1    1fy3              1.185310       2.158124
                         30       1    1fy2z             1.185310       4.825711
                         30       1    1fyz2             1.185310       4.825711
                         30       1    1fz3              1.185310       2.158124

                         31       1    1fx3              0.621013       0.504001
                         31       1    1fx2y             0.621013       1.126979
                         31       1    1fx2z             0.621013       1.126979
                         31       1    1fxy2             0.621013       1.126979
                         31       1    1fxyz             0.621013       1.951986
                         31       1    1fxz2             0.621013       1.126979
                         31       1    1fy3              0.621013       0.504001
                         31       1    1fy2z             0.621013       1.126979
                         31       1    1fyz2             0.621013       1.126979
                         31       1    1fz3              0.621013       0.504001

                         32       1    1gx4              7.014070     235.968042
                         32       1    1gx3y             7.014070     624.312756
                         32       1    1gx3z             7.014070     624.312756
                         32       1    1gx2y2            7.014070     805.984303
                         32       1    1gx2yz            7.014070    1396.005762
                         32       1    1gx2z2            7.014070     805.984303
                         32       1    1gxy3             7.014070     624.312756
                         32       1    1gxy2z            7.014070    1396.005762
                         32       1    1gxyz2            7.014070    1396.005762
                         32       1    1gxz3             7.014070     624.312756
                         32       1    1gy4              7.014070     235.968042
                         32       1    1gy3z             7.014070     624.312756
                         32       1    1gy2z2            7.014070     805.984303
                         32       1    1gyz3             7.014070     624.312756
                         32       1    1gz4              7.014070     235.968042

                         33       1    1gx4              3.883140      46.418255
                         33       1    1gx3y             3.883140     122.811159
                         33       1    1gx3z             3.883140     122.811159
                         33       1    1gx2y2            3.883140     158.548524
                         33       1    1gx2yz            3.883140     274.614099
                         33       1    1gx2z2            3.883140     158.548524
                         33       1    1gxy3             3.883140     122.811159
                         33       1    1gxy2z            3.883140     274.614099
                         33       1    1gxyz2            3.883140     274.614099
                         33       1    1gxz3             3.883140     122.811159
                         33       1    1gy4              3.883140      46.418255
                         33       1    1gy3z             3.883140     122.811159
                         33       1    1gy2z2            3.883140     158.548524
                         33       1    1gyz3             3.883140     122.811159
                         33       1    1gz4              3.883140      46.418255

                         34       1    1gx4              2.038250       7.886665
                         34       1    1gx3y             2.038250      20.866155
                         34       1    1gx3z             2.038250      20.866155
                         34       1    1gx2y2            2.038250      26.938091
                         34       1    1gx2yz            2.038250      46.658142
                         34       1    1gx2z2            2.038250      26.938091
                         34       1    1gxy3             2.038250      20.866155
                         34       1    1gxy2z            2.038250      46.658142
                         34       1    1gxyz2            2.038250      46.658142
                         34       1    1gxz3             2.038250      20.866155
                         34       1    1gy4              2.038250       7.886665
                         34       1    1gy3z             2.038250      20.866155
                         34       1    1gy2z2            2.038250      26.938091
                         34       1    1gyz3             2.038250      20.866155
                         34       1    1gz4              2.038250       7.886665

                         35       1    1gx4              1.007810       1.136912
                         35       1    1gx3y             1.007810       3.007986
                         35       1    1gx3z             1.007810       3.007986
                         35       1    1gx2y2            1.007810       3.883293
                         35       1    1gx2yz            1.007810       6.726061
                         35       1    1gx2z2            1.007810       3.883293
                         35       1    1gxy3             1.007810       3.007986
                         35       1    1gxy2z            1.007810       6.726061
                         35       1    1gxyz2            1.007810       6.726061
                         35       1    1gxz3             1.007810       3.007986
                         35       1    1gy4              1.007810       1.136912
                         35       1    1gy3z             1.007810       3.007986
                         35       1    1gy2z2            1.007810       3.883293
                         35       1    1gyz3             1.007810       3.007986
                         35       1    1gz4              1.007810       1.136912

                         36       1    1hx5              5.427550     181.053374
                         36       1    1hx4y             5.427550     543.160123
                         36       1    1hx4z             5.427550     543.160123
                         36       1    1hx3y2            5.427550     829.690793
                         36       1    1hx3yz            5.427550    1437.066608
                         36       1    1hx3z2            5.427550     829.690793
                         36       1    1hx2y3            5.427550     829.690793
                         36       1    1hx2y2z           5.427550    1855.245014
                         36       1    1hx2yz2           5.427550    1855.245014
                         36       1    1hx2z3            5.427550     829.690793
                         36       1    1hxy4             5.427550     543.160123
                         36       1    1hxy3z            5.427550    1437.066608
                         36       1    1hxy2z2           5.427550    1855.245014
                         36       1    1hxyz3            5.427550    1437.066608
                         36       1    1hxz4             5.427550     543.160123
                         36       1    1hy5              5.427550     181.053374
                         36       1    1hy4z             5.427550     543.160123
                         36       1    1hy3z2            5.427550     829.690793
                         36       1    1hy2z3            5.427550     829.690793
                         36       1    1hyz4             5.427550     543.160123
                         36       1    1hz5              5.427550     181.053374

                         37       1    1hx5              3.223120      33.284552
                         37       1    1hx4y             3.223120      99.853655
                         37       1    1hx4z             3.223120      99.853655
                         37       1    1hx3y2            3.223120     152.528977
                         37       1    1hx3yz            3.223120     264.187938
                         37       1    1hx3z2            3.223120     152.528977
                         37       1    1hx2y3            3.223120     152.528977
                         37       1    1hx2y2z           3.223120     341.065161
                         37       1    1hx2yz2           3.223120     341.065161
                         37       1    1hx2z3            3.223120     152.528977
                         37       1    1hxy4             3.223120      99.853655
                         37       1    1hxy3z            3.223120     264.187938
                         37       1    1hxy2z2           3.223120     341.065161
                         37       1    1hxyz3            3.223120     264.187938
                         37       1    1hxz4             3.223120      99.853655
                         37       1    1hy5              3.223120      33.284552
                         37       1    1hy4z             3.223120      99.853655
                         37       1    1hy3z2            3.223120     152.528977
                         37       1    1hy2z3            3.223120     152.528977
                         37       1    1hyz4             3.223120      99.853655
                         37       1    1hz5              3.223120      33.284552

                         38       1    1hx5              1.724010       4.356106
                         38       1    1hx4y             1.724010      13.068318
                         38       1    1hx4z             1.724010      13.068318
                         38       1    1hx3y2            1.724010      19.962186
                         38       1    1hx3yz            1.724010      34.575521
                         38       1    1hx3z2            1.724010      19.962186
                         38       1    1hx2y3            1.724010      19.962186
                         38       1    1hx2y2z           1.724010      44.636805
                         38       1    1hx2yz2           1.724010      44.636805
                         38       1    1hx2z3            1.724010      19.962186
                         38       1    1hxy4             1.724010      13.068318
                         38       1    1hxy3z            1.724010      34.575521
                         38       1    1hxy2z2           1.724010      44.636805
                         38       1    1hxyz3            1.724010      34.575521
                         38       1    1hxz4             1.724010      13.068318
                         38       1    1hy5              1.724010       4.356106
                         38       1    1hy4z             1.724010      13.068318
                         38       1    1hy3z2            1.724010      19.962186
                         38       1    1hy2z3            1.724010      19.962186
                         38       1    1hyz4             1.724010      13.068318
                         38       1    1hz5              1.724010       4.356106

     The atoms of this atomic kind are PAW atoms (GAPW):
       Hard Gaussian function radius:                                      1.512
       Rho0 radius:                                                        1.512
       Maximum GTO radius used for PAW projector construction:            24.566

     GAPW Soft Basis Set                                          def2-QZVP_soft

       Number of orbital shell sets:                                          17
       Number of orbital shells:                                              17
       Number of primitive Cartesian functions:                               13
       Number of Cartesian basis functions:                                   72
       Number of spherical basis functions:                                   57
       Norm type:                                                              2

       Normalised Cartesian orbitals:

                        Set   Shell   Orbital            Exponent    Coefficient

                          1       1    1s         

                          2       1    1s         

                          3       1    1s         

                          4       1    1s         

                          5       1    1s                1.325535       0.880448

                          6       1    1s                0.518772       0.435655

                          7       1    1s                0.197727       0.211329

                          8       1    1px               2.079242       2.436773
                          8       1    1py               2.079242       2.436773
                          8       1    1pz               2.079242       2.436773

                          9       1    1px               0.842824       1.151095
                          9       1    1py               0.842824       1.151095
                          9       1    1pz               0.842824       1.151095

                         10       1    1px               0.336177       0.364880
                         10       1    1py               0.336177       0.364880
                         10       1    1pz               0.336177       0.364880

                         11       1    1px               0.128640       0.109815
                         11       1    1py               0.128640       0.109815
                         11       1    1pz               0.128640       0.109815

                         12       1    1dx2              3.775000      16.827288
                         12       1    1dxy              3.775000      29.145718
                         12       1    1dxz              3.775000      29.145718
                         12       1    1dy2              3.775000      16.827288
                         12       1    1dyz              3.775000      29.145718
                         12       1    1dz2              3.775000      16.827288

                         13       1    1dx2              1.300000       2.605016
                         13       1    1dxy              1.300000       4.512019
                         13       1    1dxz              1.300000       4.512019
                         13       1    1dy2              1.300000       2.605016
                         13       1    1dyz              1.300000       4.512019
                         13       1    1dz2              1.300000       2.605016

                         14       1    1dx2              0.444000       0.397493
                         14       1    1dxy              0.444000       0.688478
                         14       1    1dxz              0.444000       0.688478
                         14       1    1dy2              0.444000       0.397493
                         14       1    1dyz              0.444000       0.688478
                         14       1    1dz2              0.444000       0.397493

                         15       1    1fx3              2.666000      13.370258
                         15       1    1fx2y             2.666000      29.896805
                         15       1    1fx2z             2.666000      29.896805
                         15       1    1fxy2             2.666000      29.896805
                         15       1    1fxyz             2.666000      51.782785
                         15       1    1fxz2             2.666000      29.896805
                         15       1    1fy3              2.666000      13.370258
                         15       1    1fy2z             2.666000      29.896805
                         15       1    1fyz2             2.666000      29.896805
                         15       1    1fz3              2.666000      13.370258

                         16       1    1fx3              0.859000       1.045777
                         16       1    1fx2y             0.859000       2.338428
                         16       1    1fx2z             0.859000       2.338428
                         16       1    1fxy2             0.859000       2.338428
                         16       1    1fxyz             0.859000       4.050277
                         16       1    1fxz2             0.859000       2.338428
                         16       1    1fy3              0.859000       1.045777
                         16       1    1fy2z             0.859000       2.338428
                         16       1    1fyz2             0.859000       2.338428
                         16       1    1fz3              0.859000       1.045777

                         17       1    1gx4              1.846000       6.005824
                         17       1    1gx3y             1.846000      15.889916
                         17       1    1gx3z             1.846000      15.889916
                         17       1    1gx2y2            1.846000      20.513794
                         17       1    1gx2yz            1.846000      35.530933
                         17       1    1gx2z2            1.846000      20.513794
                         17       1    1gxy3             1.846000      15.889916
                         17       1    1gxy2z            1.846000      35.530933
                         17       1    1gxyz2            1.846000      35.530933
                         17       1    1gxz3             1.846000      15.889916
                         17       1    1gy4              1.846000       6.005824
                         17       1    1gy3z             1.846000      15.889916
                         17       1    1gy2z2            1.846000      20.513794
                         17       1    1gyz3             1.846000      15.889916
                         17       1    1gz4              1.846000       6.005824

     AE Potential information for                                            ALL

       Description:                                       All-electron potential
                                          Krack, Parrinello, PCCP 2, 2105 (2000)

       Gaussian exponent of the core charge distribution:               8.154466
       Electronic configuration (s p d ...):                           4   4   0

  2. Atomic kind: H                                     Number of atoms:       2

     Orbital Basis Set                                                 def2-QZVP

       Number of orbital shell sets:                                          10
       Number of orbital shells:                                              10
       Number of primitive Cartesian functions:                               13
       Number of Cartesian basis functions:                                   35
       Number of spherical basis functions:                                   30
       Norm type:                                                              2

       Normalised Cartesian orbitals:

                        Set   Shell   Orbital            Exponent    Coefficient

                          1       1    1s              190.691690       0.195396
                                                        28.605532       0.363661
                                                         6.509594       0.612837
                                                         1.841246       0.914889

                          2       1    1s                0.598537       0.484985

                          3       1    1s                0.213976       0.224225

                          4       1    1s                0.080316       0.107526

                          5       1    1px               2.292000       4.019836
                          5       1    1py               2.292000       4.019836
                          5       1    1pz               2.292000       4.019836

                          6       1    1px               0.838000       1.142865
                          6       1    1py               0.838000       1.142865
                          6       1    1pz               0.838000       1.142865

                          7       1    1px               0.292000       0.305963
                          7       1    1py               0.292000       0.305963
                          7       1    1pz               0.292000       0.305963

                          8       1    1dx2              2.062000       5.840024
                          8       1    1dxy              2.062000      10.115218
                          8       1    1dxz              2.062000      10.115218
                          8       1    1dy2              2.062000       5.840024
                          8       1    1dyz              2.062000      10.115218
                          8       1    1dz2              2.062000       5.840024

                          9       1    1dx2              0.662000       0.799670
                          9       1    1dxy              0.662000       1.385069
                          9       1    1dxz              0.662000       1.385069
                          9       1    1dy2              0.662000       0.799670
                          9       1    1dyz              0.662000       1.385069
                          9       1    1dz2              0.662000       0.799670

                         10       1    1fx3              1.397000       3.123535
                         10       1    1fx2y             1.397000       6.984436
                         10       1    1fx2z             1.397000       6.984436
                         10       1    1fxy2             1.397000       6.984436
                         10       1    1fxyz             1.397000      12.097399
                         10       1    1fxz2             1.397000       6.984436
                         10       1    1fy3              1.397000       3.123535
                         10       1    1fy2z             1.397000       6.984436
                         10       1    1fyz2             1.397000       6.984436
                         10       1    1fz3              1.397000       3.123535

     RI Auxiliary Basis Set                                                RI-5Z

       Number of orbital shell sets:                                          21
       Number of orbital shells:                                              21
       Number of primitive Cartesian functions:                               21
       Number of Cartesian basis functions:                                  126
       Number of spherical basis functions:                                   91
       Norm type:                                                              2

       Normalised Cartesian orbitals:

                        Set   Shell   Orbital            Exponent    Coefficient

                          1       1    1s               23.321500       7.563581

                          2       1    1s                4.922970       2.355486

                          3       1    1s                1.775100       1.096042

                          4       1    1s                0.994218       0.709613

                          5       1    1s                0.506054       0.427620

                          6       1    1s                0.236911       0.242019

                          7       1    1px               5.974580      13.314483
                          7       1    1py               5.974580      13.314483
                          7       1    1pz               5.974580      13.314483

                          8       1    1px               2.052170       3.501118
                          8       1    1py               2.052170       3.501118
                          8       1    1pz               2.052170       3.501118

                          9       1    1px               1.248660       1.881462
                          9       1    1py               1.248660       1.881462
                          9       1    1pz               1.248660       1.881462

                         10       1    1px               0.805545       1.087808
                         10       1    1py               0.805545       1.087808
                         10       1    1pz               0.805545       1.087808

                         11       1    1px               0.347892       0.380843
                         11       1    1py               0.347892       0.380843
                         11       1    1pz               0.347892       0.380843

                         12       1    1dx2              3.858160      17.481346
                         12       1    1dxy              3.858160      30.278579
                         12       1    1dxz              3.858160      30.278579
                         12       1    1dy2              3.858160      17.481346
                         12       1    1dyz              3.858160      30.278579
                         12       1    1dz2              3.858160      17.481346

                         13       1    1dx2              1.710630       4.211459
                         13       1    1dxy              1.710630       7.294461
                         13       1    1dxz              1.710630       7.294461
                         13       1    1dy2              1.710630       4.211459
                         13       1    1dyz              1.710630       7.294461
                         13       1    1dz2              1.710630       4.211459

                         14       1    1dx2              0.979237       1.586584
                         14       1    1dxy              0.979237       2.748044
                         14       1    1dxz              0.979237       2.748044
                         14       1    1dy2              0.979237       1.586584
                         14       1    1dyz              0.979237       2.748044
                         14       1    1dz2              0.979237       1.586584

                         15       1    1dx2              0.625366       0.723843
                         15       1    1dxy              0.625366       1.253733
                         15       1    1dxz              0.625366       1.253733
                         15       1    1dy2              0.625366       0.723843
                         15       1    1dyz              0.625366       1.253733
                         15       1    1dz2              0.625366       0.723843

                         16       1    1fx3              3.101510      18.792914
                         16       1    1fx2y             3.101510      42.022232
                         16       1    1fx2z             3.101510      42.022232
                         16       1    1fxy2             3.101510      42.022232
                         16       1    1fxyz             3.101510      72.784641
                         16       1    1fxz2             3.101510      42.022232
                         16       1    1fy3              3.101510      18.792914
                         16       1    1fy2z             3.101510      42.022232
                         16       1    1fyz2             3.101510      42.022232
                         16       1    1fz3              3.101510      18.792914

                         17       1    1fx3              1.198110       2.210915
                         17       1    1fx2y             1.198110       4.943756
                         17       1    1fx2z             1.198110       4.943756
                         17       1    1fxy2             1.198110       4.943756
                         17       1    1fxyz             1.198110       8.562836
                         17       1    1fxz2             1.198110       4.943756
                         17       1    1fy3              1.198110       2.210915
                         17       1    1fy2z             1.198110       4.943756
                         17       1    1fyz2             1.198110       4.943756
                         17       1    1fz3              1.198110       2.210915

                         18       1    1fx3              0.572873       0.420326
                         18       1    1fx2y             0.572873       0.939876
                         18       1    1fx2z             0.572873       0.939876
                         18       1    1fxy2             0.572873       0.939876
                         18       1    1fxyz             0.572873       1.627914
                         18       1    1fxz2             0.572873       0.939876
                         18       1    1fy3              0.572873       0.420326
                         18       1    1fy2z             0.572873       0.939876
                         18       1    1fyz2             0.572873       0.939876
                         18       1    1fz3              0.572873       0.420326

                         19       1    1gx4              2.987800      22.576266
                         19       1    1gx3y             2.987800      59.731185
                         19       1    1gx3z             2.987800      59.731185
                         19       1    1gx2y2            2.987800      77.112629
                         19       1    1gx2yz            2.987800     133.562991
                         19       1    1gx2z2            2.987800      77.112629
                         19       1    1gxy3             2.987800      59.731185
                         19       1    1gxy2z            2.987800     133.562991
                         19       1    1gxyz2            2.987800     133.562991
                         19       1    1gxz3             2.987800      59.731185
                         19       1    1gy4              2.987800      22.576266
                         19       1    1gy3z             2.987800      59.731185
                         19       1    1gy2z2            2.987800      77.112629
                         19       1    1gyz3             2.987800      59.731185
                         19       1    1gz4              2.987800      22.576266

                         20       1    1gx4              1.231920       1.974865
                         20       1    1gx3y             1.231920       5.225001
                         20       1    1gx3z             1.231920       5.225001
                         20       1    1gx2y2            1.231920       6.745447
                         20       1    1gx2yz            1.231920      11.683456
                         20       1    1gx2z2            1.231920       6.745447
                         20       1    1gxy3             1.231920       5.225001
                         20       1    1gxy2z            1.231920      11.683456
                         20       1    1gxyz2            1.231920      11.683456
                         20       1    1gxz3             1.231920       5.225001
                         20       1    1gy4              1.231920       1.974865
                         20       1    1gy3z             1.231920       5.225001
                         20       1    1gy2z2            1.231920       6.745447
                         20       1    1gyz3             1.231920       5.225001
                         20       1    1gz4              1.231920       1.974865

                         21       1    1hx5              3.247390      34.106027
                         21       1    1hx4y             3.247390     102.318080
                         21       1    1hx4z             3.247390     102.318080
                         21       1    1hx3y2            3.247390     156.293448
                         21       1    1hx3yz            3.247390     270.708193
                         21       1    1hx3z2            3.247390     156.293448
                         21       1    1hx2y3            3.247390     156.293448
                         21       1    1hx2y2z           3.247390     349.482775
                         21       1    1hx2yz2           3.247390     349.482775
                         21       1    1hx2z3            3.247390     156.293448
                         21       1    1hxy4             3.247390     102.318080
                         21       1    1hxy3z            3.247390     270.708193
                         21       1    1hxy2z2           3.247390     349.482775
                         21       1    1hxyz3            3.247390     270.708193
                         21       1    1hxz4             3.247390     102.318080
                         21       1    1hy5              3.247390      34.106027
                         21       1    1hy4z             3.247390     102.318080
                         21       1    1hy3z2            3.247390     156.293448
                         21       1    1hy2z3            3.247390     156.293448
                         21       1    1hyz4             3.247390     102.318080
                         21       1    1hz5              3.247390      34.106027

     The atoms of this atomic kind are PAW atoms (GAPW):
       Hard Gaussian function radius:                                      1.200
       Rho0 radius:                                                        1.200
       Maximum GTO radius used for PAW projector construction:            24.566

     GAPW Soft Basis Set                                          def2-QZVP_soft

       Number of orbital shell sets:                                          10
       Number of orbital shells:                                              10
       Number of primitive Cartesian functions:                               10
       Number of Cartesian basis functions:                                   35
       Number of spherical basis functions:                                   30
       Norm type:                                                              2

       Normalised Cartesian orbitals:

                        Set   Shell   Orbital            Exponent    Coefficient

                          1       1    1s                1.841246       0.914889

                          2       1    1s                0.598537       0.484985

                          3       1    1s                0.213976       0.224225

                          4       1    1s                0.080316       0.107526

                          5       1    1px               2.292000       4.019836
                          5       1    1py               2.292000       4.019836
                          5       1    1pz               2.292000       4.019836

                          6       1    1px               0.838000       1.142865
                          6       1    1py               0.838000       1.142865
                          6       1    1pz               0.838000       1.142865

                          7       1    1px               0.292000       0.305963
                          7       1    1py               0.292000       0.305963
                          7       1    1pz               0.292000       0.305963

                          8       1    1dx2              2.062000       5.840024
                          8       1    1dxy              2.062000      10.115218
                          8       1    1dxz              2.062000      10.115218
                          8       1    1dy2              2.062000       5.840024
                          8       1    1dyz              2.062000      10.115218
                          8       1    1dz2              2.062000       5.840024

                          9       1    1dx2              0.662000       0.799670
                          9       1    1dxy              0.662000       1.385069
                          9       1    1dxz              0.662000       1.385069
                          9       1    1dy2              0.662000       0.799670
                          9       1    1dyz              0.662000       1.385069
                          9       1    1dz2              0.662000       0.799670

                         10       1    1fx3              1.397000       3.123535
                         10       1    1fx2y             1.397000       6.984436
                         10       1    1fx2z             1.397000       6.984436
                         10       1    1fxy2             1.397000       6.984436
                         10       1    1fxyz             1.397000      12.097399
                         10       1    1fxz2             1.397000       6.984436
                         10       1    1fy3              1.397000       3.123535
                         10       1    1fy2z             1.397000       6.984436
                         10       1    1fyz2             1.397000       6.984436
                         10       1    1fz3              1.397000       3.123535

     AE Potential information for                                            ALL

       Description:                                       All-electron potential
                                          Krack, Parrinello, PCCP 2, 2105 (2000)

       Gaussian exponent of the core charge distribution:              12.500000
       Electronic configuration (s p d ...):                           1   0   0


 MOLECULE KIND INFORMATION


 All atoms are their own molecule, skipping detailed information


 TOTAL NUMBERS AND MAXIMUM NUMBERS

  Total number of            - Atomic kinds:                                   2
                             - Atoms:                                          3
                             - Shell sets:                                    37
                             - Shells:                                        37
                             - Primitive Cartesian functions:                 55
                             - Cartesian basis functions:                    142
                             - Spherical basis functions:                    117

  Maximum angular momentum of the orbital basis functions:                     4


 MODULE QUICKSTEP:  ATOMIC COORDINATES IN angstrom

  Atom  Kind  Element       X           Y           Z          Z(eff)       Mass

       1     1 O    8    8.000000    8.000000    7.706950      8.00      15.9994
       2     2 H    1    8.757100    8.000000    8.293050      1.00       1.0079
       3     2 H    1    7.242900    8.000000    8.293050      1.00       1.0079




 SCF PARAMETERS         Density guess:                                   RESTART
                        --------------------------------------------------------
                        max_scf:                                             200
                        max_scf_history:                                       0
                        max_diis:                                              4
                        --------------------------------------------------------
                        eps_scf:                                        1.00E-06
                        eps_scf_history:                                0.00E+00
                        eps_diis:                                       1.00E-01
                        eps_eigval:                                     1.00E-05
                        --------------------------------------------------------
                        level_shift [a.u.]:                                 0.00
                        --------------------------------------------------------
                        Mixing method:                           DIRECT_P_MIXING
                        --------------------------------------------------------
                        No outer SCF

 PW_GRID| Information for grid number                                          1
 PW_GRID| Grid distributed over                                    24 processors
 PW_GRID| Real space group dimensions                                    24    1
 PW_GRID| the grid is blocked:                                                NO
 PW_GRID| Cutoff [a.u.]                                                    400.0
 PW_GRID| spherical cutoff:                                                   NO
 PW_GRID|   Bounds   1           -144     143                Points:         288
 PW_GRID|   Bounds   2           -144     143                Points:         288
 PW_GRID|   Bounds   3           -144     143                Points:         288
 PW_GRID| Volume element (a.u.^3)  0.1157E-02     Volume (a.u.^3)     27641.1785
 PW_GRID| Grid span                                                    FULLSPACE
 PW_GRID|   Distribution                         Average         Max         Min
 PW_GRID|   G-Vectors                           995328.0      995328      995328
 PW_GRID|   G-Rays                                3456.0        3456        3456
 PW_GRID|   Real Space Points                   995328.0      995328      995328

 PW_GRID| Information for grid number                                          2
 PW_GRID| Grid distributed over                                    24 processors
 PW_GRID| Real space group dimensions                                    24    1
 PW_GRID| the grid is blocked:                                                NO
 PW_GRID| Cutoff [a.u.]                                                    200.0
 PW_GRID| spherical cutoff:                                                   NO
 PW_GRID|   Bounds   1           -100      99                Points:         200
 PW_GRID|   Bounds   2           -100      99                Points:         200
 PW_GRID|   Bounds   3           -100      99                Points:         200
 PW_GRID| Volume element (a.u.^3)  0.3455E-02     Volume (a.u.^3)     27641.1785
 PW_GRID| Grid span                                                    FULLSPACE
 PW_GRID|   Distribution                         Average         Max         Min
 PW_GRID|   G-Vectors                           333333.3      333600      333200
 PW_GRID|   G-Rays                                1666.7        1668        1666
 PW_GRID|   Real Space Points                   333333.3      360000      320000

 PW_GRID| Information for grid number                                          3
 PW_GRID| Grid distributed over                                    24 processors
 PW_GRID| Real space group dimensions                                    24    1
 PW_GRID| the grid is blocked:                                                NO
 PW_GRID| Cutoff [a.u.]                                                     66.7
 PW_GRID| spherical cutoff:                                                   NO
 PW_GRID|   Bounds   1            -60      59                Points:         120
 PW_GRID|   Bounds   2            -60      59                Points:         120
 PW_GRID|   Bounds   3            -60      59                Points:         120
 PW_GRID| Volume element (a.u.^3)  0.1600E-01     Volume (a.u.^3)     27641.1785
 PW_GRID| Grid span                                                    FULLSPACE
 PW_GRID|   Distribution                         Average         Max         Min
 PW_GRID|   G-Vectors                            72000.0       72360       71760
 PW_GRID|   G-Rays                                 600.0         603         598
 PW_GRID|   Real Space Points                    72000.0       72000       72000

 PW_GRID| Information for grid number                                          4
 PW_GRID| Grid distributed over                                    24 processors
 PW_GRID| Real space group dimensions                                    24    1
 PW_GRID| the grid is blocked:                                                NO
 PW_GRID| Cutoff [a.u.]                                                     22.2
 PW_GRID| spherical cutoff:                                                   NO
 PW_GRID|   Bounds   1            -36      35                Points:          72
 PW_GRID|   Bounds   2            -36      35                Points:          72
 PW_GRID|   Bounds   3            -36      35                Points:          72
 PW_GRID| Volume element (a.u.^3)  0.7406E-01     Volume (a.u.^3)     27641.1785
 PW_GRID| Grid span                                                    FULLSPACE
 PW_GRID|   Distribution                         Average         Max         Min
 PW_GRID|   G-Vectors                            15552.0       15768       15408
 PW_GRID|   G-Rays                                 216.0         219         214
 PW_GRID|   Real Space Points                    15552.0       15552       15552

 PW_GRID| Information for grid number                                          5
 PW_GRID| Grid distributed over                                    24 processors
 PW_GRID| Real space group dimensions                                    24    1
 PW_GRID| the grid is blocked:                                                NO
 PW_GRID| Cutoff [a.u.]                                                      7.4
 PW_GRID| spherical cutoff:                                                   NO
 PW_GRID|   Bounds   1            -20      19                Points:          40
 PW_GRID|   Bounds   2            -20      19                Points:          40
 PW_GRID|   Bounds   3            -20      19                Points:          40
 PW_GRID| Volume element (a.u.^3)  0.4319         Volume (a.u.^3)     27641.1785
 PW_GRID| Grid span                                                    FULLSPACE
 PW_GRID|   Distribution                         Average         Max         Min
 PW_GRID|   G-Vectors                             2666.7        2720        2640
 PW_GRID|   G-Rays                                  66.7          68          66
 PW_GRID|   Real Space Points                     2666.7        3200        1600

 POISSON| Solver                                          Martyna-Tuckerman (MT)
 POISSON| MT| Alpha                                                        7.000
 POISSON| MT| Relative cutoff                                                2.0
 POISSON| Periodicity                                                       NONE

 RS_GRID| Information for grid number                                          2
 RS_GRID|   Bounds   1           -100      99                Points:         200
 RS_GRID|   Bounds   2           -100      99                Points:         200
 RS_GRID|   Bounds   3           -100      99                Points:         200
 RS_GRID| Real space distribution over                                  4 groups
 RS_GRID| Real space distribution along direction                              2
 RS_GRID| Border size                                                         25
 RS_GRID| Real space distribution over                                  6 groups
 RS_GRID| Real space distribution along direction                              3
 RS_GRID| Border size                                                         25
 RS_GRID|   Distribution                         Average         Max         Min
 RS_GRID|   Planes                                 100.0         100         100
 RS_GRID|   Distribution                         Average         Max         Min
[...]
 sigma_c_pade = (-0.72599453946587511     , -2.4454422214469054E-003)
 z_value(n_level_gw) =  0.96918887274874133     
 m_value(n_level_gw) =  -3.1790632473807014E-002
 level_energ_GW =   8.7738483870955467E-002
 
 
 n_level_gw =           6
 AFTER get_sigma_c_newton_pade
 vec_gw_energ(n_level_gw) = -0.82257165057677162     
 Eigenval_scf(n_level_gw_ref) = -0.31709501256489514     
 nparam_pade =           8
 level_energ_GW =   8.7738483870955467E-002
 
  
  GW quasiparticle energies
  -------------------------
   
  The GW quasiparticle energies are calculated according to: 
  E_GW = E_SCF + Z * ( Sigc(E_SCF) + Sigx - vxc )
   
  The energy unit of the following table is eV.  Sigc_fit is a very conservative
  estimate of the statistical error of the fitting.
   
            MO      E_SCF       Sigc   Sigc_fit   Sigx-vxc          Z       E_GW
     1 ( occ )   -510.300     -3.840      0.000    -48.829      1.000   -562.969
     2 ( occ )    -25.293      5.804      0.000    -11.646      1.000    -31.135
     3 ( occ )    -13.139      1.196      0.000     -6.565      1.000    -18.508
     4 ( occ )     -9.249      1.943      0.000     -6.878      1.000    -14.184
     5 ( occ )     -7.163      2.141      0.000     -6.869      1.000    -11.891
     6 ( vir )     -0.317     -0.823      0.000      3.517      1.000      2.377
     7 ( vir )      1.481     -0.748      0.000      3.127      1.000      3.861
     8 ( vir )      5.860     -0.667      0.000      3.478      1.000      8.671
     9 ( vir )      6.379     -1.063      0.000      4.273      1.000      9.589
    10 ( vir )      6.445     -0.687      0.000      3.891      1.000      9.650
    11 ( vir )      7.317     -1.613      0.000      4.970      1.000     10.675
    12 ( vir )      9.711     -1.525      0.000      4.444      1.000     12.629
    13 ( vir )     11.409     -1.259      0.000      4.653      1.000     14.802
    14 ( vir )     12.964     -1.414      0.000      4.845      1.000     16.396
    15 ( vir )     14.563     -1.240      0.000      4.793      1.000     18.116
   
  GW HOMO-LUMO gap (eV)                                                    14.27
  

  Total RI-RPA Time=                                                  305.505863
  RI-RPA energy  =                                             -0.48536095118622

  Total EXX Time=                                                      13.437799
  EXX energy  =                                                -8.91420420926135

 ENERGY| Total FORCE_EVAL ( QS ) energy (a.u.):              -76.542181412089931


 -------------------------------------------------------------------------------
 -                                                                             -
 -                                DBCSR STATISTICS                             -
 -                                                                             -
 -------------------------------------------------------------------------------
 COUNTER                                    TOTAL       BLAS       SMM       ACC
 flops    57 x     5 x    57                32490     100.0%      0.0%      0.0%
 flops    30 x     5 x    57                34200     100.0%      0.0%      0.0%
 flops    57 x     5 x    30                34200     100.0%      0.0%      0.0%
 flops    57 x    30 x     5                34200     100.0%      0.0%      0.0%
 flops    30 x    57 x     5                34200     100.0%      0.0%      0.0%
 flops    30 x     5 x    30                36000     100.0%      0.0%      0.0%
 flops    30 x    30 x     5                54000     100.0%      0.0%      0.0%
 flops    57 x    57 x     5                64980     100.0%      0.0%      0.0%
 flops    30 x    30 x    57               102600     100.0%      0.0%      0.0%
 flops    30 x    30 x    30               108000     100.0%      0.0%      0.0%
 flops    30 x    87 x    57               297540     100.0%      0.0%      0.0%
 flops    87 x    30 x    57               297540     100.0%      0.0%      0.0%
 flops    30 x    87 x    30               313200     100.0%      0.0%      0.0%
 flops    87 x    30 x    30               313200     100.0%      0.0%      0.0%
 flops    57 x    57 x    57               370386     100.0%      0.0%      0.0%
 flops    30 x    57 x    57               389880     100.0%      0.0%      0.0%
 flops    57 x    57 x    30               389880     100.0%      0.0%      0.0%
 flops    30 x    57 x    30               410400     100.0%      0.0%      0.0%
 flops    87 x    87 x    57               862866     100.0%      0.0%      0.0%
 flops    87 x    87 x    30               908280     100.0%      0.0%      0.0%
 flops    91 x    30 x    57            130712400     100.0%      0.0%      0.0%
 flops    91 x    30 x    30            137592000     100.0%      0.0%      0.0%
 flops   180 x   180 x   180            163296000     100.0%      0.0%      0.0%
 flops   180 x    91 x   180            165110400     100.0%      0.0%      0.0%
 flops    91 x   180 x   180            165110400     100.0%      0.0%      0.0%
 flops   180 x   180 x    91            165110400     100.0%      0.0%      0.0%
 flops    91 x    91 x   180            166944960     100.0%      0.0%      0.0%
 flops   180 x    91 x    91            166944960     100.0%      0.0%      0.0%
 flops    91 x   180 x    91            166944960     100.0%      0.0%      0.0%
 flops    91 x    91 x    91            168799904     100.0%      0.0%      0.0%
 flops    91 x    30 x   180            206388000     100.0%      0.0%      0.0%
 flops    91 x    30 x    91            208681200     100.0%      0.0%      0.0%
 flops    57 x   912 x    57            343718208     100.0%      0.0%      0.0%
 flops    30 x   912 x    57            349332480     100.0%      0.0%      0.0%
 flops    57 x   480 x    57            361808640     100.0%      0.0%      0.0%
 flops    57 x   912 x    30            361808640     100.0%      0.0%      0.0%
 flops    30 x   480 x    57            367718400     100.0%      0.0%      0.0%
 flops    30 x   912 x    30            367718400     100.0%      0.0%      0.0%
 flops    91 x    87 x    57            379065960     100.0%      0.0%      0.0%
 flops    57 x   480 x    30            380851200     100.0%      0.0%      0.0%
 flops    30 x   480 x    30            387072000     100.0%      0.0%      0.0%
 flops   271 x    30 x    57            389264400     100.0%      0.0%      0.0%
 flops    91 x    87 x    30            399016800     100.0%      0.0%      0.0%
 flops   271 x    30 x    30            409752000     100.0%      0.0%      0.0%
 flops    91 x    87 x   180            598525200     100.0%      0.0%      0.0%
 flops    91 x    87 x    91            605175480     100.0%      0.0%      0.0%
 flops   271 x    30 x   180            614628000     100.0%      0.0%      0.0%
 flops   271 x    30 x    91            621457200     100.0%      0.0%      0.0%
 flops   271 x    87 x    57           1128866760     100.0%      0.0%      0.0%
 flops   271 x    87 x    30           1188280800     100.0%      0.0%      0.0%
 flops   180 x   180 x   570           1551312000     100.0%      0.0%      0.0%
 flops   180 x    91 x   570           1568548800     100.0%      0.0%      0.0%
 flops    91 x   180 x   570           1568548800     100.0%      0.0%      0.0%
 flops    91 x    91 x   570           1585977120     100.0%      0.0%      0.0%
 flops   180 x   180 x   600           1632960000     100.0%      0.0%      0.0%
 flops   180 x    91 x   600           1651104000     100.0%      0.0%      0.0%
 flops    91 x   180 x   600           1651104000     100.0%      0.0%      0.0%
 flops    91 x    91 x   600           1669449600     100.0%      0.0%      0.0%
 flops   271 x    87 x   180           1782421200     100.0%      0.0%      0.0%
 flops   271 x    87 x    91           1802225880     100.0%      0.0%      0.0%
 flops    57 x   855 x    57           3544594020     100.0%      0.0%      0.0%
 flops    30 x   855 x    57           3602491200     100.0%      0.0%      0.0%
 flops    57 x   450 x    57           3731151600     100.0%      0.0%      0.0%
 flops    57 x   855 x    30           3731151600     100.0%      0.0%      0.0%
 flops    30 x   450 x    57           3792096000     100.0%      0.0%      0.0%
 flops    30 x   855 x    30           3792096000     100.0%      0.0%      0.0%
 flops    57 x   450 x    30           3927528000     100.0%      0.0%      0.0%
 flops    30 x   450 x    30           3991680000     100.0%      0.0%      0.0%
 flops   180 x   180 x   551           4498804800     100.0%      0.0%      0.0%
 flops   180 x    91 x   551           4548791520     100.0%      0.0%      0.0%
 flops    91 x   180 x   551           4548791520     100.0%      0.0%      0.0%
 flops    91 x    91 x   551           4599333648     100.0%      0.0%      0.0%
 flops   180 x   180 x   580           4735584000     100.0%      0.0%      0.0%
 flops   180 x    91 x   580           4788201600     100.0%      0.0%      0.0%
 flops    91 x   180 x   580           4788201600     100.0%      0.0%      0.0%
 flops    91 x    91 x   580           4841403840     100.0%      0.0%      0.0%
 flops inhomo. stacks                           0       0.0%      0.0%      0.0%
 flops total                        95.196337E+09     100.0%      0.0%      0.0%
 flops max/rank                     10.146261E+09     100.0%      0.0%      0.0%
 matmuls inhomo. stacks                         0       0.0%      0.0%      0.0%
 matmuls total                              29364     100.0%      0.0%      0.0%
 number of processed stacks                 14796     100.0%      0.0%      0.0%
 average stack size                                     2.0       0.0       0.0
 marketing flops                    95.786983E+09
 -------------------------------------------------------------------------------
 # multiplications                            692
 max memory usage/rank             505.958400E+06
 # max total images/rank                        3
 # max 3D layers                                1
 # MPI messages exchanged                  295944
 MPI messages size (bytes):
  total size                         2.283401E+09
  min size                           0.000000E+00
  max size                         390.240000E+03
  average size                       7.715651E+03
 MPI breakdown and total messages size (bytes):
             size <=      128              264874                        0
       128 < size <=     8192                2597                 18492120
      8192 < size <=    32768                9303                190258776
     32768 < size <=   131072               15684               1162694608
    131072 < size <=  4194304                3486                911956192
   4194304 < size <= 16777216                   0                        0
  16777216 < size                               0                        0
 -------------------------------------------------------------------------------

 *** WARNING in dbcsr_mm.F:278 :: Using a non-square number of MPI ranks ***
 *** might lead to poor performance. Used ranks: 24 Suggested: 25 49     ***

 -------------------------------------------------------------------------------
 -                                                                             -
 -                      DBCSR MESSAGE PASSING PERFORMANCE                      -
 -                                                                             -
 -------------------------------------------------------------------------------

 ROUTINE             CALLS      AVE VOLUME [Bytes]
 MP_Group               26
 MP_Bcast               77                     12.
 MP_Allreduce         4035                      9.
 MP_Alltoall          2176                  30554.
 MP_Wait             37376
 MP_ISend            27460                  14034.
 MP_IRecv            27490                   3672.
 MP_Memory           52840
 -------------------------------------------------------------------------------


 MEMORY| Estimated peak process memory [MiB]                                 483

 -------------------------------------------------------------------------------
 ----                             MULTIGRID INFO                            ----
 -------------------------------------------------------------------------------
 count for grid        1:         141968          cutoff [a.u.]          200.00
 count for grid        2:          27826          cutoff [a.u.]           66.67
 count for grid        3:           8545          cutoff [a.u.]           22.22
 count for grid        4:           1454          cutoff [a.u.]            7.41
 total gridlevel count  :         179793

 -------------------------------------------------------------------------------
 -                                                                             -
 -                         MESSAGE PASSING PERFORMANCE                         -
 -                                                                             -
 -------------------------------------------------------------------------------

 ROUTINE             CALLS      AVE VOLUME [Bytes]
 MP_Group                5
 MP_Bcast              187                3038325.
 MP_Allreduce          347                  17632.
 MP_Sync                72
 MP_Alltoall           123                3774333.
 MP_ISendRecv          276                  57988.
 MP_Wait               940
 MP_comm_split          10
 MP_ISend             3274                  78838.
 MP_IRecv             2708                 152803.
 MP_Recv                 4                    936.
 -------------------------------------------------------------------------------


 -------------------------------------------------------------------------------
 -                                                                             -
 -                           R E F E R E N C E S                               -
 -                                                                             -
 -------------------------------------------------------------------------------
 
 CP2K version 7.0 (Development Version), the CP2K developers group (2018).
 CP2K is freely available from https://www.cp2k.org/ .

 Schuett, Ole; Messmer, Peter; Hutter, Juerg; VandeVondele, Joost. 
 Electronic Structure Calculations on Graphics Processing Units, John Wiley & Sons, Ltd, 173-190 (2016). 
 GPU-Accelerated Sparse Matrix-Matrix Multiplication for Linear Scaling Density Functional Theory.
 https://dx.doi.org/10.1002/9781118670712.ch8


 Del Ben, M; Schuett, O; Wentz, T; Messmer, P; Hutter, J;
 VandeVondele, J. 
 COMPUTER PHYSICS COMMUNICATIONS, 187, 120-129 (2015). 
 Enabling simulation at the fifth rung of DFT: Large scale RPA
 calculations with excellent time to solution.
 https://dx.doi.org/10.1016/j.cpc.2014.10.021


 Borstnik, U; VandeVondele, J; Weber, V; Hutter, J. 
 PARALLEL COMPUTING, 40 (5-6), 47-58 (2014). 
 Sparse matrix multiplication: The distributed block-compressed sparse
 row library.
 https://dx.doi.org/10.1016/j.parco.2014.03.012


 Hutter, J; Iannuzzi, M; Schiffmann, F; VandeVondele, J. 
 WILEY INTERDISCIPLINARY REVIEWS-COMPUTATIONAL MOLECULAR SCIENCE, 4 (1), 15-25 (2014). 
 CP2K: atomistic simulations of condensed matter systems.
 https://dx.doi.org/10.1002/wcms.1159


 Del Ben, M; Hutter, J; VandeVondele, J. 
 JOURNAL OF CHEMICAL THEORY AND COMPUTATION, 9 (6), 2654-2671 (2013). 
 Electron Correlation in the Condensed Phase from a Resolution of
 Identity Approach Based on the Gaussian and Plane Waves Scheme.
 https://dx.doi.org/10.1021/ct4002202


 Del Ben, M; Hutter, J; VandeVondele, J. 
 JOURNAL OF CHEMICAL THEORY AND COMPUTATION, 8 (11), 4177-4188 (2012). 
 Second-Order Moller-Plesset Perturbation Theory in the Condensed Phase:
 An Efficient and Massively Parallel Gaussian and Plane Waves Approach.
 https://dx.doi.org/10.1021/ct300531w


 Guidon, M; Hutter, J; VandeVondele, J. 
 JOURNAL OF CHEMICAL THEORY AND COMPUTATION, 5 (11), 3010-3021 (2009). 
 Robust Periodic Hartree-Fock Exchange for Large-Scale Simulations Using
 Gaussian Basis Sets.
 https://dx.doi.org/10.1021/ct900494g


 Guidon, M; Schiffmann, F; Hutter, J; VandeVondele, J. 
 JOURNAL OF CHEMICAL PHYSICS, 128 (21), 214104 (2008). 
 Ab initio molecular dynamics using hybrid density functionals.
 https://dx.doi.org/10.1063/1.2931945


 Frigo, M; Johnson, SG. 
 PROCEEDINGS OF THE IEEE, 93 (2), 216-231 (2005). 
 The design and implementation of FFTW3.
 https://dx.doi.org/10.1109/JPROC.2004.840301


 Lippert, G; Hutter, J; Parrinello, M. 
 THEORETICAL CHEMISTRY ACCOUNTS, 103 (2), 124-140 (1999). 
 The Gaussian and augmented-plane-wave density functional method for ab
 initio molecular dynamics simulations.
 https://dx.doi.org/10.1007/s002140050523


 Krack, M; Parrinello, M. 
 PHYSICAL CHEMISTRY CHEMICAL PHYSICS, 2 (10), 2105-2112 (2000). 
 All-electron ab-initio molecular dynamics.
 https://dx.doi.org/10.1039/b001167n


 Martyna, GJ; Tuckerman, ME. 
 JOURNAL OF CHEMICAL PHYSICS, 110 (6), 2810-2821 (1999). 
 A reciprocal space based method for treating long range interactions in
 ab initio and force-field-based calculations in clusters.
 https://dx.doi.org/10.1063/1.477923


 Perdew, JP; Burke, K; Ernzerhof, M. 
 PHYSICAL REVIEW LETTERS, 77 (18), 3865-3868 (1996). 
 Generalized gradient approximation made simple.
 https://dx.doi.org/10.1103/PhysRevLett.77.3865


 -------------------------------------------------------------------------------
 -                                                                             -
 -                                T I M I N G                                  -
 -                                                                             -
 -------------------------------------------------------------------------------
 SUBROUTINE                       CALLS  ASD         SELF TIME        TOTAL TIME
                                MAXIMUM       AVERAGE  MAXIMUM  AVERAGE  MAXIMUM
 CP2K                                 1  1.0    0.065    0.083  329.629  329.631
 qs_energies                          1  2.0    0.000    0.001  326.488  326.489
 mp2_main                             1  3.0    0.000    0.000  318.962  318.978
 mp2_gpw_main                         1  4.0    0.000    0.002  305.506  305.507
 rpa_ri_compute_en                    1  5.0    0.000    0.000  300.379  300.379
 rpa_num_int                          1  6.0    0.001    0.002  300.377  300.377
 get_l_sq_wghts_sin_tf_t_to_w         2  7.0  143.175  145.255  145.270  145.271
 get_l_sq_wghts_cos_tf_t_to_w         2  7.0  142.733  144.611  144.637  144.639
 compute_vec_Sigma_x_minus_vxc_       1  4.0    0.000    0.000   13.438   13.438
 mp_sum_dm                           26  7.6    4.896   13.311    4.896   13.311
 integrate_four_center                1  5.0    0.003    0.004   12.312   12.312
 calc_screening_functions             1  6.0    4.138    4.383    6.413    6.873
 -------------------------------------------------------------------------------

 The number of warnings for this run is : 1
 
 -------------------------------------------------------------------------------
  **** **** ******  **  PROGRAM ENDED AT                 2019-06-07 20:37:07.592
 ***** ** ***  *** **   PROGRAM RAN ON                                    tcopt4
 **    ****   ******    PROGRAM RAN BY                                   wilhelm
 ***** **    ** ** **   PROGRAM PROCESS ID                                 96397
  **** **  *******  **  PROGRAM STOPPED IN /data/wilhelm/2_job_test/11_GW100/3_c
                                           alcs/76_H2O
