 DBCSR| CPU Multiplication driver                                           BLAS
 DBCSR| Multrec recursion limit                                              512
 DBCSR| Multiplication stack size                                           1000
 DBCSR| Maximum elements for images                                    UNLIMITED
 DBCSR| Multiplicative factor virtual images                                   1
 DBCSR| Use multiplication densification                                       T
 DBCSR| Multiplication size stacks                                             3
 DBCSR| Number of 3D layers                                               SINGLE
 DBCSR| Use MPI memory allocation                                              T
 DBCSR| Use RMA algorithm                                                      F
 DBCSR| Use Communication thread                                               T
 DBCSR| Communication thread load                                             87


  **** **** ******  **  PROGRAM STARTED AT               2019-05-31 10:40:32.714
 ***** ** ***  *** **   PROGRAM STARTED ON                                tcopt4
 **    ****   ******    PROGRAM STARTED BY                               wilhelm
 ***** **    ** ** **   PROGRAM PROCESS ID                                 42248
  **** **  *******  **  PROGRAM STARTED IN /data/wilhelm/2_job_test/11_GW100/3_c
                                           alcs/01_He

 CP2K| version string:                    CP2K version 7.0 (Development Version)
 CP2K| source code revision number:                                  git:026fb12
 CP2K| cp2kflags: libint fftw3 libxc pexsi elpa=201705 parallel mpi3 scalapack q
 CP2K|            uip libderiv_max_am1=5 libint_max_am=6
 CP2K| is freely available from                            https://www.cp2k.org/
 CP2K| Program compiled at                         Sat May 11 13:15:02 CEST 2019
 CP2K| Program compiled on                                                tcopt4
 CP2K| Program compiled for                            local_valgrind_March_2019
 CP2K| Data directory path              /data/wilhelm/1_git_repository/cp2k/data
 CP2K| Input file name                                                    GW.inp

 GLOBAL| Force Environment number                                              1
 GLOBAL| Basis set file name                              BASIS_def2_QZVP_RI_ALL
 GLOBAL| Potential file name                                           POTENTIAL
 GLOBAL| MM Potential file name                                     MM_POTENTIAL
 GLOBAL| Coordinate file name                                          01_He.xyz
 GLOBAL| Method name                                                        CP2K
 GLOBAL| Project name                                                   ALL_ELEC
 GLOBAL| Preferred FFT library                                             FFTW3
 GLOBAL| Preferred diagonalization lib.                                       SL
 GLOBAL| Run type                                                         ENERGY
 GLOBAL| All-to-all communication in single precision                          F
 GLOBAL| FFTs using library dependent lengths                                  F
 GLOBAL| Global print level                                               MEDIUM
 GLOBAL| MPI I/O enabled                                                       T
 GLOBAL| Total number of message passing processes                            24
 GLOBAL| Number of threads for this process                                    1
 GLOBAL| This output is from process                                           0
 GLOBAL| CPU model name :  Intel(R) Xeon(R) CPU E5-2697 v3 @ 2.60GHz

 MEMORY| system memory details [Kb]
 MEMORY|                        rank 0           min           max       average
 MEMORY| MemTotal            396954008     396954008     396954008     396954008
 MEMORY| MemFree             168381008     168381008     168381008     168381008
 MEMORY| Buffers                305772        305772        305772        305772
 MEMORY| Cached               14925856      14925856      14925856      14925856
 MEMORY| Slab                   569872        569872        569872        569872
 MEMORY| SReclaimable           432992        432992        432992        432992
 MEMORY| MemLikelyFree       184045628     184045628     184045628     184045628


 *** Fundamental physical constants (SI units) ***

 *** Literature: B. J. Mohr and B. N. Taylor,
 ***             CODATA recommended values of the fundamental physical
 ***             constants: 2006, Web Version 5.1
 ***             http://physics.nist.gov/constants

 Speed of light in vacuum [m/s]                             2.99792458000000E+08
 Magnetic constant or permeability of vacuum [N/A**2]       1.25663706143592E-06
 Electric constant or permittivity of vacuum [F/m]          8.85418781762039E-12
 Planck constant (h) [J*s]                                  6.62606896000000E-34
 Planck constant (h-bar) [J*s]                              1.05457162825177E-34
 Elementary charge [C]                                      1.60217648700000E-19
 Electron mass [kg]                                         9.10938215000000E-31
 Electron g factor [ ]                                     -2.00231930436220E+00
 Proton mass [kg]                                           1.67262163700000E-27
 Fine-structure constant                                    7.29735253760000E-03
 Rydberg constant [1/m]                                     1.09737315685270E+07
 Avogadro constant [1/mol]                                  6.02214179000000E+23
 Boltzmann constant [J/K]                                   1.38065040000000E-23
 Atomic mass unit [kg]                                      1.66053878200000E-27
 Bohr radius [m]                                            5.29177208590000E-11

 *** Conversion factors ***

 [u] -> [a.u.]                                              1.82288848426455E+03
 [Angstrom] -> [Bohr] = [a.u.]                              1.88972613288564E+00
 [a.u.] = [Bohr] -> [Angstrom]                              5.29177208590000E-01
 [a.u.] -> [s]                                              2.41888432650478E-17
 [a.u.] -> [fs]                                             2.41888432650478E-02
 [a.u.] -> [J]                                              4.35974393937059E-18
 [a.u.] -> [N]                                              8.23872205491840E-08
 [a.u.] -> [K]                                              3.15774647902944E+05
 [a.u.] -> [kJ/mol]                                         2.62549961709828E+03
 [a.u.] -> [kcal/mol]                                       6.27509468713739E+02
 [a.u.] -> [Pa]                                             2.94210107994716E+13
 [a.u.] -> [bar]                                            2.94210107994716E+08
 [a.u.] -> [atm]                                            2.90362800883016E+08
 [a.u.] -> [eV]                                             2.72113838565563E+01
 [a.u.] -> [Hz]                                             6.57968392072181E+15
 [a.u.] -> [1/cm] (wave numbers)                            2.19474631370540E+05
 [a.u./Bohr**2] -> [1/cm]                                   5.14048714338585E+03
 

 CELL_TOP| Volume [angstrom^3]:                                         4096.000
 CELL_TOP| Vector a [angstrom    16.000     0.000     0.000    |a| =      16.000
 CELL_TOP| Vector b [angstrom     0.000    16.000     0.000    |b| =      16.000
 CELL_TOP| Vector c [angstrom     0.000     0.000    16.000    |c| =      16.000
 CELL_TOP| Angle (b,c), alpha [degree]:                                   90.000
 CELL_TOP| Angle (a,c), beta  [degree]:                                   90.000
 CELL_TOP| Angle (a,b), gamma [degree]:                                   90.000
 CELL_TOP| Numerically orthorhombic:                                         YES

 GENERATE|  Preliminary Number of Bonds generated:                             0
 GENERATE|  Achieved consistency in connectivity generation.

 CELL| Volume [angstrom^3]:                                             4096.000
 CELL| Vector a [angstrom]:      16.000     0.000     0.000    |a| =      16.000
 CELL| Vector b [angstrom]:       0.000    16.000     0.000    |b| =      16.000
 CELL| Vector c [angstrom]:       0.000     0.000    16.000    |c| =      16.000
 CELL| Angle (b,c), alpha [degree]:                                       90.000
 CELL| Angle (a,c), beta  [degree]:                                       90.000
 CELL| Angle (a,b), gamma [degree]:                                       90.000
 CELL| Numerically orthorhombic:                                             YES

 CELL_REF| Volume [angstrom^3]:                                         4096.000
 CELL_REF| Vector a [angstrom    16.000     0.000     0.000    |a| =      16.000
 CELL_REF| Vector b [angstrom     0.000    16.000     0.000    |b| =      16.000
 CELL_REF| Vector c [angstrom     0.000     0.000    16.000    |c| =      16.000
 CELL_REF| Angle (b,c), alpha [degree]:                                   90.000
 CELL_REF| Angle (a,c), beta  [degree]:                                   90.000
 CELL_REF| Angle (a,b), gamma [degree]:                                   90.000
 CELL_REF| Numerically orthorhombic:                                         YES

 *******************************************************************************
 *******************************************************************************
 **                                                                           **
 **     #####                         ##              ##                      **
 **    ##   ##            ##          ##              ##                      **
 **   ##     ##                       ##            ######                    **
 **   ##     ##  ##   ##  ##   #####  ##  ##   ####   ##    #####    #####    **
 **   ##     ##  ##   ##  ##  ##      ## ##   ##      ##   ##   ##  ##   ##   **
 **   ##  ## ##  ##   ##  ##  ##      ####     ###    ##   ######   ######    **
 **    ##  ###   ##   ##  ##  ##      ## ##      ##   ##   ##       ##        **
 **     #######   #####   ##   #####  ##  ##  ####    ##    #####   ##        **
 **           ##                                                    ##        **
 **                                                                           **
 **                                                ... make the atoms dance   **
 **                                                                           **
 **            Copyright (C) by CP2K developers group (2000 - 2019)           **
 **                                                                           **
 *******************************************************************************

 DFT| Spin restricted Kohn-Sham (RKS) calculation                            RKS
 DFT| Multiplicity                                                             1
 DFT| Number of spin states                                                    1
 DFT| Charge                                                                   0
 DFT| Self-interaction correction (SIC)                                       NO
 DFT| Cutoffs: density                                              1.000000E-10
 DFT|          gradient                                             1.000000E-10
 DFT|          tau                                                  1.000000E-10
 DFT|          cutoff_smoothing_range                               0.000000E+00
 DFT| XC density smoothing                                                  NONE
 DFT| XC derivatives                                                          PW
 FUNCTIONAL| ROUTINE=NEW
 FUNCTIONAL| PBE:
 FUNCTIONAL| J.P.Perdew, K.Burke, M.Ernzerhof, Phys. Rev. Letter, vol. 77, n 18,
 FUNCTIONAL|  pp. 3865-3868, (1996){spin unpolarized}                           

 QS| Method:                                                                GAPW
 QS| Density plane wave grid type                        NON-SPHERICAL FULLSPACE
 QS| Number of grid levels:                                                    4
 QS| Density cutoff [a.u.]:                                                200.0
 QS| Multi grid cutoff [a.u.]: 1) grid level                               200.0
 QS|                           2) grid level                                66.7
 QS|                           3) grid level                                22.2
 QS|                           4) grid level                                 7.4
 QS| Grid level progression factor:                                          3.0
 QS| Relative density cutoff [a.u.]:                                        25.0
 QS| Consistent realspace mapping and integration 
 QS| Interaction thresholds: eps_pgf_orb:                                1.0E-05
 QS|                         eps_filter_matrix:                          0.0E+00
 QS|                         eps_core_charge:                            1.0E-12
 QS|                         eps_rho_gspace:                             1.0E-10
 QS|                         eps_rho_rspace:                             1.0E-10
 QS|                         eps_gvg_rspace:                             1.0E-05
 QS|                         eps_ppl:                                    1.0E-02
 QS|                         eps_ppnl:                                   1.0E-07
 QS| GAPW|                   eps_fit:                                    1.0E-04
 QS| GAPW|                   eps_iso:                                    1.0E-12
 QS| GAPW|                   eps_svd:                                    1.0E-08
 QS| GAPW|                   eps_cpc:                                    1.0E-10
 QS| GAPW|   atom-r-grid: quadrature:                 GC_LOG                        
 QS| GAPW|      atom-s-grid:  max l :                                          6
 QS| GAPW|      max_l_rho0 :                                                   2


 ATOMIC KIND INFORMATION

  1. Atomic kind: He                                    Number of atoms:       1

     Orbital Basis Set                                                 def2-QZVP

       Number of orbital shell sets:                                          10
       Number of orbital shells:                                              10
       Number of primitive Cartesian functions:                               14
       Number of Cartesian basis functions:                                   35
       Number of spherical basis functions:                                   30
       Norm type:                                                              2

       Normalised Cartesian orbitals:

                        Set   Shell   Orbital            Exponent    Coefficient

                          1       1    1s             1144.647081       0.231717
                                                       171.645967       0.431697
                                                        39.066056       0.730707
                                                        11.051402       1.103692
                                                         3.572557       1.379698

                          2       1    1s                1.242942       0.838973

                          3       1    1s                0.448077       0.390323

                          4       1    1s                0.164116       0.183769

                          5       1    1px               5.994000      13.368603
                          5       1    1py               5.994000      13.368603
                          5       1    1pz               5.994000      13.368603

                          6       1    1px               1.745000       2.858804
                          6       1    1py               1.745000       2.858804
                          6       1    1pz               1.745000       2.858804

                          7       1    1px               0.560000       0.690518
                          7       1    1py               0.560000       0.690518
                          7       1    1pz               0.560000       0.690518

                          8       1    1dx2              4.299000      21.125281
                          8       1    1dxy              4.299000      36.590059
                          8       1    1dxz              4.299000      36.590059
                          8       1    1dy2              4.299000      21.125281
                          8       1    1dyz              4.299000      36.590059
                          8       1    1dz2              4.299000      21.125281

                          9       1    1dx2              1.223000       2.341023
                          9       1    1dxy              1.223000       4.054771
                          9       1    1dxz              1.223000       4.054771
                          9       1    1dy2              1.223000       2.341023
                          9       1    1dyz              1.223000       4.054771
                          9       1    1dz2              1.223000       2.341023

                         10       1    1fx3              2.680000      13.528752
                         10       1    1fx2y             2.680000      30.251209
                         10       1    1fx2z             2.680000      30.251209
                         10       1    1fxy2             2.680000      30.251209
                         10       1    1fxyz             2.680000      52.396631
                         10       1    1fxz2             2.680000      30.251209
                         10       1    1fy3              2.680000      13.528752
                         10       1    1fy2z             2.680000      30.251209
                         10       1    1fyz2             2.680000      30.251209
                         10       1    1fz3              2.680000      13.528752

     RI Auxiliary Basis Set                                                RI-5Z

       Number of orbital shell sets:                                          21
       Number of orbital shells:                                              21
       Number of primitive Cartesian functions:                               21
       Number of Cartesian basis functions:                                  126
       Number of spherical basis functions:                                   91
       Norm type:                                                              2

       Normalised Cartesian orbitals:

                        Set   Shell   Orbital            Exponent    Coefficient

                          1       1    1s               69.957700      17.239979

                          2       1    1s               15.569200       5.586114

                          3       1    1s                5.026940       2.392698

                          4       1    1s                1.997460       1.197481

                          5       1    1s                0.847999       0.629806

                          6       1    1s                0.373257       0.340342

                          7       1    1px              14.241400      39.434918
                          7       1    1py              14.241400      39.434918
                          7       1    1pz              14.241400      39.434918

                          8       1    1px               4.785100      10.087972
                          8       1    1py               4.785100      10.087972
                          8       1    1pz               4.785100      10.087972

                          9       1    1px               3.288140       6.311433
                          9       1    1py               3.288140       6.311433
                          9       1    1pz               3.288140       6.311433

                         10       1    1px               1.899330       3.178269
                         10       1    1py               1.899330       3.178269
                         10       1    1pz               1.899330       3.178269

                         11       1    1px               0.772218       1.031846
                         11       1    1py               0.772218       1.031846
                         11       1    1pz               0.772218       1.031846

                         12       1    1dx2             11.057200     110.354106
                         12       1    1dxy             11.057200     191.138918
                         12       1    1dxz             11.057200     191.138918
                         12       1    1dy2             11.057200     110.354106
                         12       1    1dyz             11.057200     191.138918
                         12       1    1dz2             11.057200     110.354106

                         13       1    1dx2              5.762230      35.273048
                         13       1    1dxy              5.762230      61.094711
                         13       1    1dxz              5.762230      61.094711
                         13       1    1dy2              5.762230      35.273048
                         13       1    1dyz              5.762230      61.094711
                         13       1    1dz2              5.762230      35.273048

                         14       1    1dx2              3.520060      14.889224
                         14       1    1dxy              3.520060      25.788893
                         14       1    1dxz              3.520060      25.788893
                         14       1    1dy2              3.520060      14.889224
                         14       1    1dyz              3.520060      25.788893
                         14       1    1dz2              3.520060      14.889224

                         15       1    1dx2              1.340090       2.747223
                         15       1    1dxy              1.340090       4.758330
                         15       1    1dxz              1.340090       4.758330
                         15       1    1dy2              1.340090       2.747223
                         15       1    1dyz              1.340090       4.758330
                         15       1    1dz2              1.340090       2.747223

                         16       1    1fx3              8.291460     171.741093
                         16       1    1fx2y             8.291460     384.024758
                         16       1    1fx2z             8.291460     384.024758
                         16       1    1fxy2             8.291460     384.024758
                         16       1    1fxyz             8.291460     665.150392
                         16       1    1fxz2             8.291460     384.024758
                         16       1    1fy3              8.291460     171.741093
                         16       1    1fy2z             8.291460     384.024758
                         16       1    1fyz2             8.291460     384.024758
                         16       1    1fz3              8.291460     171.741093

                         17       1    1fx3              5.450110      66.813820
                         17       1    1fx2y             5.450110     149.400243
                         17       1    1fx2z             5.450110     149.400243
                         17       1    1fxy2             5.450110     149.400243
                         17       1    1fxyz             5.450110     258.768812
                         17       1    1fxz2             5.450110     149.400243
                         17       1    1fy3              5.450110      66.813820
                         17       1    1fy2z             5.450110     149.400243
                         17       1    1fyz2             5.450110     149.400243
                         17       1    1fz3              5.450110      66.813820

                         18       1    1fx3              2.267140       9.284974
                         18       1    1fx2y             2.267140      20.761834
                         18       1    1fx2z             2.267140      20.761834
                         18       1    1fxy2             2.267140      20.761834
                         18       1    1fxyz             2.267140      35.960551
                         18       1    1fxz2             2.267140      20.761834
                         18       1    1fy3              2.267140       9.284974
                         18       1    1fy2z             2.267140      20.761834
                         18       1    1fyz2             2.267140      20.761834
                         18       1    1fz3              2.267140       9.284974

                         19       1    1gx4              8.220310     365.071528
                         19       1    1gx3y             8.220310     965.888474
                         19       1    1gx3z             8.220310     965.888474
                         19       1    1gx2y2            8.220310    1246.956658
                         19       1    1gx2yz            8.220310    2159.792286
                         19       1    1gx2z2            8.220310    1246.956658
                         19       1    1gxy3             8.220310     965.888474
                         19       1    1gxy2z            8.220310    2159.792286
                         19       1    1gxyz2            8.220310    2159.792286
                         19       1    1gxz3             8.220310     965.888474
                         19       1    1gy4              8.220310     365.071528
                         19       1    1gy3z             8.220310     965.888474
                         19       1    1gy2z2            8.220310    1246.956658
                         19       1    1gyz3             8.220310     965.888474
                         19       1    1gz4              8.220310     365.071528

                         20       1    1gx4              4.159820      56.090641
                         20       1    1gx3y             4.159820     148.401888
                         20       1    1gx3z             4.159820     148.401888
                         20       1    1gx2y2            4.159820     191.586014
                         20       1    1gx2yz            4.159820     331.836710
                         20       1    1gx2z2            4.159820     191.586014
                         20       1    1gxy3             4.159820     148.401888
                         20       1    1gxy2z            4.159820     331.836710
                         20       1    1gxyz2            4.159820     331.836710
                         20       1    1gxz3             4.159820     148.401888
                         20       1    1gy4              4.159820      56.090641
                         20       1    1gy3z             4.159820     148.401888
                         20       1    1gy2z2            4.159820     191.586014
                         20       1    1gyz3             4.159820     148.401888
                         20       1    1gz4              4.159820      56.090641

                         21       1    1hx5              5.848000     230.737456
                         21       1    1hx4y             5.848000     692.212367
                         21       1    1hx4z             5.848000     692.212367
                         21       1    1hx3y2            5.848000    1057.371856
                         21       1    1hx3yz            5.848000    1831.421777
                         21       1    1hx3z2            5.848000    1057.371856
                         21       1    1hx2y3            5.848000    1057.371856
                         21       1    1hx2y2z           5.848000    2364.355347
                         21       1    1hx2yz2           5.848000    2364.355347
                         21       1    1hx2z3            5.848000    1057.371856
                         21       1    1hxy4             5.848000     692.212367
                         21       1    1hxy3z            5.848000    1831.421777
                         21       1    1hxy2z2           5.848000    2364.355347
                         21       1    1hxyz3            5.848000    1831.421777
                         21       1    1hxz4             5.848000     692.212367
                         21       1    1hy5              5.848000     230.737456
                         21       1    1hy4z             5.848000     692.212367
                         21       1    1hy3z2            5.848000    1057.371856
                         21       1    1hy2z3            5.848000    1057.371856
                         21       1    1hyz4             5.848000     692.212367
                         21       1    1hz5              5.848000     230.737456

     The atoms of this atomic kind are PAW atoms (GAPW):
       Hard Gaussian function radius:                                      1.512
       Rho0 radius:                                                        1.512
       Maximum GTO radius used for PAW projector construction:            24.566

     GAPW Soft Basis Set                                          def2-QZVP_soft

       Number of orbital shell sets:                                          10
       Number of orbital shells:                                              10
       Number of primitive Cartesian functions:                                9
       Number of Cartesian basis functions:                                   35
       Number of spherical basis functions:                                   30
       Norm type:                                                              2

       Normalised Cartesian orbitals:

                        Set   Shell   Orbital            Exponent    Coefficient

                          1       1    1s                3.572557       1.379698

                          2       1    1s                1.242942       0.838973

                          3       1    1s                0.448077       0.390323

                          4       1    1s                0.164116       0.183769

                          5       1    1px        
                          5       1    1py        
                          5       1    1pz        

                          6       1    1px               1.745000       2.858804
                          6       1    1py               1.745000       2.858804
                          6       1    1pz               1.745000       2.858804

                          7       1    1px               0.560000       0.690518
                          7       1    1py               0.560000       0.690518
                          7       1    1pz               0.560000       0.690518

                          8       1    1dx2              4.299000      21.125281
                          8       1    1dxy              4.299000      36.590059
                          8       1    1dxz              4.299000      36.590059
                          8       1    1dy2              4.299000      21.125281
                          8       1    1dyz              4.299000      36.590059
                          8       1    1dz2              4.299000      21.125281

                          9       1    1dx2              1.223000       2.341023
                          9       1    1dxy              1.223000       4.054771
                          9       1    1dxz              1.223000       4.054771
                          9       1    1dy2              1.223000       2.341023
                          9       1    1dyz              1.223000       4.054771
                          9       1    1dz2              1.223000       2.341023

                         10       1    1fx3              2.680000      13.528752
                         10       1    1fx2y             2.680000      30.251209
                         10       1    1fx2z             2.680000      30.251209
                         10       1    1fxy2             2.680000      30.251209
                         10       1    1fxyz             2.680000      52.396631
                         10       1    1fxz2             2.680000      30.251209
                         10       1    1fy3              2.680000      13.528752
                         10       1    1fy2z             2.680000      30.251209
                         10       1    1fyz2             2.680000      30.251209
                         10       1    1fz3              2.680000      13.528752

     AE Potential information for                                            ALL

       Description:                                       All-electron potential
                                          Krack, Parrinello, PCCP 2, 2105 (2000)

       Gaussian exponent of the core charge distribution:              12.500000
       Electronic configuration (s p d ...):                           2   0   0


 MOLECULE KIND INFORMATION


 All atoms are their own molecule, skipping detailed information


 TOTAL NUMBERS AND MAXIMUM NUMBERS

  Total number of            - Atomic kinds:                                   1
                             - Atoms:                                          1
                             - Shell sets:                                    10
                             - Shells:                                        10
                             - Primitive Cartesian functions:                 14
                             - Cartesian basis functions:                     35
                             - Spherical basis functions:                     30

  Maximum angular momentum of the orbital basis functions:                     3


 MODULE QUICKSTEP:  ATOMIC COORDINATES IN angstrom

  Atom  Kind  Element       X           Y           Z          Z(eff)       Mass

       1     1 He   2    8.000000    8.000000    8.000000      2.00       4.0026




 SCF PARAMETERS         Density guess:                                   RESTART
                        --------------------------------------------------------
                        max_scf:                                             200
                        max_scf_history:                                       0
                        max_diis:                                              4
                        --------------------------------------------------------
                        eps_scf:                                        1.00E-06
                        eps_scf_history:                                0.00E+00
                        eps_diis:                                       1.00E-01
                        eps_eigval:                                     1.00E-05
                        --------------------------------------------------------
                        level_shift [a.u.]:                                 0.00
                        --------------------------------------------------------
                        Mixing method:                           DIRECT_P_MIXING
                        --------------------------------------------------------
                        No outer SCF

 PW_GRID| Information for grid number                                          1
 PW_GRID| Grid distributed over                                    24 processors
 PW_GRID| Real space group dimensions                                    24    1
 PW_GRID| the grid is blocked:                                                NO
 PW_GRID| Cutoff [a.u.]                                                    400.0
 PW_GRID| spherical cutoff:                                                   NO
 PW_GRID|   Bounds   1           -144     143                Points:         288
 PW_GRID|   Bounds   2           -144     143                Points:         288
 PW_GRID|   Bounds   3           -144     143                Points:         288
 PW_GRID| Volume element (a.u.^3)  0.1157E-02     Volume (a.u.^3)     27641.1785
 PW_GRID| Grid span                                                    FULLSPACE
 PW_GRID|   Distribution                         Average         Max         Min
 PW_GRID|   G-Vectors                           995328.0      995328      995328
 PW_GRID|   G-Rays                                3456.0        3456        3456
 PW_GRID|   Real Space Points                   995328.0      995328      995328

 PW_GRID| Information for grid number                                          2
 PW_GRID| Grid distributed over                                    24 processors
 PW_GRID| Real space group dimensions                                    24    1
 PW_GRID| the grid is blocked:                                                NO
 PW_GRID| Cutoff [a.u.]                                                    200.0
 PW_GRID| spherical cutoff:                                                   NO
 PW_GRID|   Bounds   1           -100      99                Points:         200
 PW_GRID|   Bounds   2           -100      99                Points:         200
 PW_GRID|   Bounds   3           -100      99                Points:         200
 PW_GRID| Volume element (a.u.^3)  0.3455E-02     Volume (a.u.^3)     27641.1785
 PW_GRID| Grid span                                                    FULLSPACE
 PW_GRID|   Distribution                         Average         Max         Min
 PW_GRID|   G-Vectors                           333333.3      333600      333200
 PW_GRID|   G-Rays                                1666.7        1668        1666
 PW_GRID|   Real Space Points                   333333.3      360000      320000

 PW_GRID| Information for grid number                                          3
 PW_GRID| Grid distributed over                                    24 processors
 PW_GRID| Real space group dimensions                                    24    1
 PW_GRID| the grid is blocked:                                                NO
 PW_GRID| Cutoff [a.u.]                                                     66.7
 PW_GRID| spherical cutoff:                                                   NO
 PW_GRID|   Bounds   1            -60      59                Points:         120
 PW_GRID|   Bounds   2            -60      59                Points:         120
 PW_GRID|   Bounds   3            -60      59                Points:         120
 PW_GRID| Volume element (a.u.^3)  0.1600E-01     Volume (a.u.^3)     27641.1785
 PW_GRID| Grid span                                                    FULLSPACE
 PW_GRID|   Distribution                         Average         Max         Min
 PW_GRID|   G-Vectors                            72000.0       72360       71760
 PW_GRID|   G-Rays                                 600.0         603         598
 PW_GRID|   Real Space Points                    72000.0       72000       72000

 PW_GRID| Information for grid number                                          4
 PW_GRID| Grid distributed over                                    24 processors
 PW_GRID| Real space group dimensions                                    24    1
 PW_GRID| the grid is blocked:                                                NO
 PW_GRID| Cutoff [a.u.]                                                     22.2
 PW_GRID| spherical cutoff:                                                   NO
 PW_GRID|   Bounds   1            -36      35                Points:          72
 PW_GRID|   Bounds   2            -36      35                Points:          72
 PW_GRID|   Bounds   3            -36      35                Points:          72
 PW_GRID| Volume element (a.u.^3)  0.7406E-01     Volume (a.u.^3)     27641.1785
 PW_GRID| Grid span                                                    FULLSPACE
 PW_GRID|   Distribution                         Average         Max         Min
 PW_GRID|   G-Vectors                            15552.0       15768       15408
 PW_GRID|   G-Rays                                 216.0         219         214
 PW_GRID|   Real Space Points                    15552.0       15552       15552

 PW_GRID| Information for grid number                                          5
 PW_GRID| Grid distributed over                                    24 processors
 PW_GRID| Real space group dimensions                                    24    1
 PW_GRID| the grid is blocked:                                                NO
 PW_GRID| Cutoff [a.u.]                                                      7.4
 PW_GRID| spherical cutoff:                                                   NO
 PW_GRID|   Bounds   1            -20      19                Points:          40
 PW_GRID|   Bounds   2            -20      19                Points:          40
 PW_GRID|   Bounds   3            -20      19                Points:          40
 PW_GRID| Volume element (a.u.^3)  0.4319         Volume (a.u.^3)     27641.1785
 PW_GRID| Grid span                                                    FULLSPACE
 PW_GRID|   Distribution                         Average         Max         Min
 PW_GRID|   G-Vectors                             2666.7        2720        2640
 PW_GRID|   G-Rays                                  66.7          68          66
 PW_GRID|   Real Space Points                     2666.7        3200        1600

 POISSON| Solver                                          Martyna-Tuckerman (MT)
 POISSON| MT| Alpha                                                        7.000
 POISSON| MT| Relative cutoff                                                2.0
 POISSON| Periodicity                                                       NONE

 RS_GRID| Information for grid number                                          2
 RS_GRID|   Bounds   1           -100      99                Points:         200
 RS_GRID|   Bounds   2           -100      99                Points:         200
 RS_GRID|   Bounds   3           -100      99                Points:         200
 RS_GRID| Real space distribution over                                  4 groups
 RS_GRID| Real space distribution along direction                              2
 RS_GRID| Border size                                                         23
 RS_GRID| Real space distribution over                                  6 groups
 RS_GRID| Real space distribution along direction                              3
 RS_GRID| Border size                                                         23
 RS_GRID|   Distribution                         Average         Max         Min
 RS_GRID|   Planes                                  96.0          96          96
 RS_GRID|   Distribution                         Average         Max         Min
 RS_GRID|   Planes                                  79.3          80          79

 RS_GRID| Information for grid number                                          3
 RS_GRID|   Bounds   1            -60      59                Points:         120
 RS_GRID|   Bounds   2            -60      59                Points:         120
 RS_GRID|   Bounds   3            -60      59                Points:         120
 RS_GRID| Real space distribution over                                  4 groups
 RS_GRID| Real space distribution along direction                              2
 RS_GRID| Border size                                                         23
 RS_GRID| Real space distribution over                                  6 groups
 RS_GRID| Real space distribution along direction                              3
 RS_GRID| Border size                                                         23
 RS_GRID|   Distribution                         Average         Max         Min
 RS_GRID|   Planes                                  76.0          76          76
 RS_GRID|   Distribution                         Average         Max         Min
 RS_GRID|   Planes                                  66.0          66          66

 RS_GRID| Information for grid number                                          4
 RS_GRID|   Bounds   1            -36      35                Points:          72
 RS_GRID|   Bounds   2            -36      35                Points:          72
 RS_GRID|   Bounds   3            -36      35                Points:          72
 RS_GRID| Real space fully replicated
 RS_GRID| Group size                                                           1

 RS_GRID| Information for grid number                                          5
 RS_GRID|   Bounds   1            -20      19                Points:          40
 RS_GRID|   Bounds   2            -20      19                Points:          40
 RS_GRID|   Bounds   3            -20      19                Points:          40
 RS_GRID| Real space fully replicated
 RS_GRID| Group size                                                           1
 
 RI-RPA| using GPW style
 

  HFX_INFO| Replica ID:                                                        1
  HFX_INFO| EPS_SCHWARZ:                                                 2.0E-17
  HFX_INFO| EPS_SCHWARZ_FORCES                                           1.0E-06
  HFX_INFO| EPS_STORAGE_SCALING:                                         1.0E+00
  HFX_INFO| NBINS:                                                            64
  HFX_INFO| BLOCK_SIZE:                                                        1
  HFX_INFO| FRACTION:                                               1.0000000000
  HFX_INFO| Interaction Potential:                                       COULOMB
  HFX_INFO| Number of periodic shells considered:                           NONE
  HFX_INFO| Number of periodic cells considered:                            NONE


 Number of electrons:                                                          2
 Number of occupied orbitals:                                                  1
 Number of molecular orbitals:                                                 1

 Number of orbital functions:                                                 30
 Number of independent orbital functions:                                     30

 Extrapolation method: initial_guess

 *** WARNING in qs_initial_guess.F:267 :: User requested to restart the   ***
 *** wavefunction from the file named: ALL_ELEC-RESTART.wfn. This file    ***
 *** does not exist. Please check the existence of the file or change     ***
 *** properly the value of the keyword WFN_RESTART_FILE_NAME. Calculation ***
 *** continues using ATOMIC GUESS.                                        ***


 Atomic guess: The first density matrix is obtained in terms of atomic orbitals
               and electronic configurations assigned to each atomic kind

 Guess for atomic kind: He

 Electronic structure
    Total number of core electrons                                          0.00
    Total number of valence electrons                                       2.00
    Total number of electrons                                               2.00
    Multiplicity                                                   not specified
    S      2.00


 *******************************************************************************
                  Iteration          Convergence                     Energy [au]
 *******************************************************************************
                          1        0.633191E-01                  -2.832290281215
                          2        0.266172E-01                  -2.833548314060
                          3        0.176260E-03                  -2.833819279018
                          4        0.721278E-05                  -2.833819290012
                          5        0.814386E-07                  -2.833819290031

 Energy components [Hartree]           Total Energy ::           -2.833819290031
                                        Band Energy ::           -1.139032671749
                                     Kinetic Energy ::            2.768452363449
                                   Potential Energy ::           -5.602271653480
                                      Virial (-V/T) ::            2.023611360428
                                        Core Energy ::           -3.858037117417
                                          XC Energy ::           -0.972750020670
                                     Coulomb Energy ::            1.996967848056

 Orbital energies  State     L     Occupation   Energy[a.u.]          Energy[eV]

                       1     0          2.000      -0.569516          -15.497328


 Total Electron Density at R=0:                                         3.412583
 Re-scaling the density matrix to get the right number of electrons
                  # Electrons              Trace(P)               Scaling factor
                            2                 2.000                        1.000


 SCF WAVEFUNCTION OPTIMIZATION

  Step     Update method      Time    Convergence         Total energy    Change
  ------------------------------------------------------------------------------
     1 P_Mix/Diag. 0.40E+00    2.0     0.01501529        -2.8920974994 -2.89E+00
     2 P_Mix/Diag. 0.40E+00    1.9     0.00812585        -2.8924332265 -3.36E-04
     3 DIIS/Diag.  0.71E-02    1.9     0.00573114        -2.8925975138 -1.64E-04
     4 DIIS/Diag.  0.12E-03    2.3     0.00006039        -2.8928232572 -2.26E-04
     5 DIIS/Diag.  0.30E-03    2.0     0.00008511        -2.8928232521  5.16E-09
     6 DIIS/Diag.  0.27E-03    2.0     0.00003983        -2.8928232532 -1.12E-09
     7 DIIS/Diag.  0.48E-05    2.1     0.00000073        -2.8928232581 -4.87E-09

  *** SCF run converged in     7 steps ***


  Electronic density on regular grids:         -1.8860158955        0.1139841045
  Core density on regular grids:                2.0000000000       -0.0000000000
  Hard and soft densities (Lebedev):           -1.9999999999       -1.8860158956
  Total Rho_soft + Rho1_hard - Rho1_soft       -1.9999999998
  Total charge density (r-space):               0.0000000002
  Total Rho_soft + Rho0_soft (g-space):        -0.0000000171

  Overlap energy of the core charge distribution:               0.00000000000000
  Self energy of the core charge distribution:                 -5.64189583547756
  Core Hamiltonian energy:                                      1.97489972214458
  Hartree energy:                                               0.75967602681165
  Exchange-correlation energy:                                 -0.91430592986233

  GAPW| Exc from hard and soft atomic rho1:                    -0.13227097477591
  GAPW| local Eh = 1 center integrals:                          1.06107373309057

  Total energy:                                                -2.89282325806901

 !-----------------------------------------------------------------------------!
                     Mulliken Population Analysis

 #  Atom  Element  Kind  Atomic population                           Net charge
       1     He       1          2.000000                              0.000000
 # Total charge                              2.000000                  0.000000

 !-----------------------------------------------------------------------------!

 !-----------------------------------------------------------------------------!
                           Hirshfeld Charges

  #Atom  Element  Kind  Ref Charge     Population                    Net charge
      1       He     1       2.000          2.000                         0.000

  Total Charge                                                            0.000
 !-----------------------------------------------------------------------------!


 RI-RPA section
 --------------

  Used number of processes per group:                                          1
  Maximum allowed memory usage per MPI processes:                     200.00 MiB

  HFX_MEM_INFO| Est. max. program size before HFX [MiB]:                     384
  HFX_MEM_INFO| Number of cart. primitive ERI's calculated:              2313441
  HFX_MEM_INFO| Number of sph. ERI's calculated:                          810000
  HFX_MEM_INFO| Number of sph. ERI's stored in-core:                      810000
  HFX_MEM_INFO| Number of sph. ERI's stored on disk:                           0
  HFX_MEM_INFO| Number of sph. ERI's calculated on the fly:                    0
  HFX_MEM_INFO| Total memory consumption ERI's RAM [MiB]:                      5
  HFX_MEM_INFO| Whereof max-vals [MiB]:                                        1
  HFX_MEM_INFO| Total compression factor ERI's RAM:                         1.31
  HFX_MEM_INFO| Total memory consumption ERI's disk [MiB]:                     0
  HFX_MEM_INFO| Total compression factor ERI's disk:                        0.00
  HFX_MEM_INFO| Size of density/Fock matrix [MiB]:                             0
  HFX_MEM_INFO| Size of buffers [MiB]:                                         0
  HFX_MEM_INFO| Est. max. program size after HFX  [MiB]:                     385

  GPW_INFO| Density cutoff [a.u.]:                                         150.0
  GPW_INFO| Relative density cutoff [a.u.]:                                 25.0
  RI_INFO| Cholesky decomposition group size:                                 24
  RI_INFO| Number of groups for auxiliary basis functions                     24
  RI_INFO| Occupied  basis set size:                                           1
  RI_INFO| Virtual   basis set size:                                          29
  RI_INFO| Auxiliary basis set size:                                          91
  RI_INFO| Total memory for (ia|K) integrals:                           0.02 MiB
  RI_INFO| Group size for frequency integration:                              24
  INTEG_INFO| MINIMAX quadrature
  INTEG_INFO| Number of integration points:                                   12
  INTEG_INFO| Number of integration points per RPA group:                     12
  MATRIX_INFO| Number row processes:                                           4
  MATRIX_INFO| Number column processes:                                        6
  MATRIX_INFO| Row block size:                                                 3
  MATRIX_INFO| Column block size:                                              7
 Emin =  0.85343701274424766      Emax =   17.541802808894499      Range =   20.554302833068373     
  INTEG_INFO| Range for the minimax approximation:                       20.5543
  INTEG_INFO| Minimax parameters:                    Weights           Abscissas
                                                1.3480094155        0.1668538423
                                                1.5106381461        0.5206345603
                                                1.8610508139        0.9377427316
                                                2.4535320557        1.4712257651
                                                3.3821242855        2.1923506039
                                                4.8041710940        3.2031076225
                                                6.9937460723        4.6577615133
                                               10.4797563034        6.8064034885
                                               16.4704396313       10.1012977510
                                               28.4689979628       15.5215234714
                                               60.8540707957       25.9037181212
                                              231.4047060813       55.3649226670
  INTEG_INFO| Range for the minimax approximation:                       20.5543
  INTEG_INFO| Gap:                                                        0.8534
  INTEG_INFO| Minimax parameters of the time grid:   Weights           Abscissas
                                                0.0209667533        0.0081418663
                                                0.0502871652        0.0435429728
                                                0.0835398421        0.1100138316
                                                0.1239557380        0.2129929496
                                                0.1763679254        0.3618983450
                                                0.2479232877        0.5720757773
                                                0.3488841582        0.8674994023
                                                0.4940031788        1.2844808854
                                                0.7061277330        1.8776585226
                                                1.0267615447        2.7323990308
                                                1.5540211245        3.9980680960
                                                2.6684156560        6.0202950136
 
 tau scaled:   9.5400904296815310E-003   5.1020722254930408E-002  0.12890679682909367       0.24957079018501047       0.42404810152061401       0.67031985813172201        1.0164773607582747        1.5050681728496098        2.2001137688258510        3.2016411170531716        4.6846668662636954        7.0541761415739570     
 
 
 omega scaled:  0.14239924476110896       0.44432880383454332       0.80030435556224033        1.2555985220749530        1.8710331503130708        2.7336506008175836        3.9751060719804454        5.8088366607175912        8.6208213774693370        13.246642624655557        22.107191812298044        47.250474211759240     
 
 
 weights_cos_tf_t_to_w
   4.9194347658690553E-002   4.8967614656597845E-002   4.9382710150083498E-002   4.8836164683789124E-002   4.9461472694095773E-002   4.8793766161836123E-002   4.9483780054323287E-002   4.8780956262961125E-002   4.9504956888740785E-002   4.8681539679529068E-002   4.9960721659995433E-002   4.5769750962710867E-002  0.11762919889094456       0.11845677423625575       0.11693994866121613       0.11894176517538239       0.11664139081624009       0.11911828086595755       0.11651613646189816       0.11926000929828155       0.11620178047487259       0.12046165759574642       0.10682342090006114        7.5617583116620507E-002  0.19623198528821564       0.19447784605240986       0.19770492789379257       0.19341232658194626       0.19842245968404534       0.19285778573214279       0.19909652029522248       0.19146106678590219       0.20449433902908074       0.24432933480063490       0.17208746107199130        1.9988391917629921E-002  0.28967218225400782       0.29279359890069112       0.28699382110632060       0.29487732684357060       0.28525495754102731       0.29702765800444808       0.28022865178637474       0.34578644744506681       0.30836772302757781       0.26700568560110888       0.13458366165062213       -8.6652191875863181E-003  0.41464692956416421       0.40947602355095181       0.41931477694356373       0.40519717735283678       0.42469730858250004       0.39075377016373264       0.31950281697655047       0.43240654753765656       0.38034023241536197       0.29125229253917612        3.6407203593957084E-002   6.6551804599385778E-003  0.57888563798533366       0.58725527839322811       0.57043256794007735       0.59818798764609638       0.53739791653057489       0.51746205143347457       0.60611347646218583       0.52737297461702515       0.46050790635449174       0.11950115275385546       -2.1582882890595581E-002  -1.3175499917197342E-003  0.82091342462055417       0.80715066084735043       0.83877200306144062       0.75213272641717610       0.74360397694873215       0.85276347339363390       0.72855847630511172       0.67422879398903657       0.26051674693582882        6.2360486346310279E-002   7.0280684794894899E-003  -1.2526327646979834E-003   1.1523963339844454        1.1767914749999357        1.0907588264204340        1.0513994019127868        1.2076688058926202        1.0166278212554074       0.96849555761256545       0.45106466056187827        8.7949868279981705E-002  -3.6563817845198174E-002  -1.2599032869788730E-002   1.2740703571914860E-003   1.6636781918272852        1.6097503734443461        1.4291267885513836        1.7260432186574719        1.4507835208178448        1.3888170466316969       0.70105544087838745       0.14441369904998944       -3.5116909957447935E-002  -1.4548715360411128E-002   4.2423512755069809E-002  -4.1403753328001251E-004   2.3891469193637760        2.7282601708887242        2.5128277042657938        2.1437101754470893        2.0060497048179964        1.0223143646922683       0.22480034152483491       -6.2885675972688876E-002  -2.4428611550302199E-002   12.396666102727313       -1.9241585352600489E-002  -3.5960741283525867E-004   3.6858352698840409        3.8805419782891430        3.3234539390125390        2.9485945164872134        1.3872057536664646       0.32871064991908944       -9.7981647504725197E-002  -6.8684216629153097E-002   1.4293714311197071E-002   6.6626754990034009E-003   1.4715047560023449E-003   2.0883921156324642E-003   5.9931908113891685        5.7171179940466050        4.4051394061347571        1.5664844337273078       0.50592803296618960      -0.15001434580535292       -5.4969004797930397E-002   2.3427095104782292E-002  -2.3326262074550883E-002  -5.8034584016211123E-003   3.0427117926447450E-003  -2.5639433897399412E-004
 
 weights_cos_tf_w_to_t
   9.1561018512419060E-002   9.1528950190209110E-002   9.1580386537651243E-002   9.1502024142161700E-002   9.1619844553644095E-002   9.1445012756845509E-002   9.1699387714032590E-002   9.1336330503523841E-002   9.1855677017710413E-002   9.1068236430528929E-002   9.2501698596418352E-002   8.7905731351128918E-002  0.10255509726675234       0.10266073801691757       0.10249098608606438       0.10275081295653479       0.10235595774245342       0.10295554686885822       0.10203921452616696       0.10349616101373021       0.10077861774411007       0.11318859883498514       0.10855314863248688        9.4069954611781734E-002  0.12646955866400486       0.12625901480243595       0.12659878045574072       0.12607282675873951       0.12689362403588714       0.12556983479317751       0.12790472144336607       0.12215219995910594       0.11424290892756893       0.13102402958409046       0.11614112796018250        8.9630068077415595E-002  0.16649055991196296       0.16687046964642002       0.16625227612919005       0.16723140026618566       0.16561353826653921       0.16863437559416480       0.15963921408063358       0.15662523005380871       0.17225599950070544       0.15034581030666644       0.13596529336007723        4.2576274066161199E-002  0.22994159769984285       0.22926672850036700       0.23038233163466998       0.22853181372241935       0.23201151825756419       0.22145368799137052       0.21697863649408661       0.23714916675016945       0.20494290266754206       0.19323345385912361        8.9166212518635060E-002   1.9766795686398761E-002  0.32582709170332269       0.32705343199286063       0.32496307505588123       0.32879199952782340       0.31833220371675663       0.30566316867708437       0.33644421719948636       0.29214390187182643       0.27660455723164395       0.14142168385267562        3.1220989513003564E-002  -9.1843213423973748E-003  0.47581939580950916       0.47346175902490178       0.47774208760772924       0.46767480343070883       0.41457422779165692       0.48951498925422315       0.43107879946001632       0.40176599725819351       0.20571741314729661        4.7226350076295540E-002  -1.5016583141180213E-002  -5.7585978524078343E-003  0.70998065212362016       0.71500014672607359       0.70447741374713890       0.78989148584115154       0.73529537134990397       0.65572080611960404       0.59383302483469380       0.28436692140591818        6.6692542083004971E-002  -2.2259663597570679E-002  -1.8966411469593630E-002   4.5659441545148772E-003   1.1227591278235145        1.1099581540873213        1.1508806943768899        1.1714786752453252        1.0399055456160136       0.89685860852611909       0.36671997896809755        9.2470205197225389E-002  -2.9322823268419559E-002  -1.6894801300214694E-002   8.0116214132248502E-003  -9.3333197123539793E-003   1.9205849318102524        1.9668931686720270        2.3460007043095286        1.7876725170922294        1.3764062667502286       0.41026938579628974       0.16313569647562717       -7.8767121238835822E-002  -2.7206930760816508E-002   20.028205744059211        8.8299748094926266E-003  -5.4968325355875224E-003   4.1968255756975221        3.7651936000821937        3.6433792029130401        1.9307697587546386       0.37637874695073376      -0.17287677318022360        4.8041945049271124E-002  -7.8134057604423018E-002  0.23839171534329812       -9.4358114541650856E-002   5.9123837395436652E-003   8.7036402275922908E-003   14.645609990315471        10.095553916576911        1.6153596143423568      -0.48585858828235678       0.28813392007283217       -4.9188867563369772E-002  -4.3488340964393829E-002   4.1604386148082477E-002  -1.2319922837654363E-002  -9.2957175938527155E-003   4.3961401426203806E-002  -3.8215379455642691E-003
[...]
  INTEG_INFO| Maximum deviation of the imag. time fit:                  3.04E-06
  Number of fit points for analytic continuation:                              4

 *** WARNING in rpa_gw.F:513 :: Pade approximation: more parameters than ***
 *** data points. Reset # of parameters.                                 ***

  Number of pade parameters:                                                   4
  MEMORY_INFO| Memory cut:                                                     1
  MEMORY_INFO| Im. time group size for RI functions:                           1
  MEMORY_INFO| Im. time group size for local P matrix:                         1
  SPARSITY_INFO| Eps pgf orb for imaginary time:                        1.00E-30
  SPARSITY_INFO| Eps filter for imaginary time:                         1.00E-30
  SPARSITY_INFO| Second eps filter for imaginary time:                  1.00E-30
  RPA_IM_TIME_INFO| Number of periodic images T for Chi_PQ^T(it):              1
  RPA_IM_TIME_INFO| Number of periodic images T for Chi_PQ^T(it):              1
  RPA_IM_TIME_INFO| Number of periodic images T for Chi_PQ^T(it):              1
  RPA_IM_TIME_INFO| Number of periodic images T for Chi_PQ^T(it):              1
  RPA_IM_TIME_INFO| Number of periodic images T for Chi_PQ^T(it):              1
  RPA_IM_TIME_INFO| Number of periodic images T for Chi_PQ^T(it):              1
  RPA_IM_TIME_INFO| Number of periodic images T for Chi_PQ^T(it):              1
  RPA_IM_TIME_INFO| Number of periodic images T for Chi_PQ^T(it):              1
  RPA_IM_TIME_INFO| Number of periodic images T for Chi_PQ^T(it):              1
  RPA_IM_TIME_INFO| Number of periodic images T for Chi_PQ^T(it):              1
  RPA_IM_TIME_INFO| Number of periodic images T for Chi_PQ^T(it):              1
  RPA_IM_TIME_INFO| Number of periodic images T for Chi_PQ^T(it):              1
  
  GW quasiparticle energies
  -------------------------
   
  The GW quasiparticle energies are calculated according to: 
  E_GW = E_SCF + Z * ( Sigc(E_SCF) + Sigx - vxc )
   
  The energy unit of the following table is eV.  Sigc_fit is a very conservative
  estimate of the statistical error of the fitting.
   
            MO      E_SCF       Sigc   Sigc_fit   Sigx-vxc          Z       E_GW
     1 ( occ )    -15.748      1.610      0.000     -9.371      1.000    -23.510
     2 ( vir )      7.475     -0.244      0.000      3.792      1.000     11.023
     3 ( vir )     22.727     -0.962      0.000      6.805      1.000     28.570
     4 ( vir )     22.727     -0.962      0.000      6.805      1.000     28.570
     5 ( vir )     22.727     -0.962      0.000      6.805      1.000     28.570
     6 ( vir )     51.490     -3.067      0.000      8.899      1.000     57.322
     7 ( vir )     95.111      2.349      0.000     10.468      1.000    107.928
     8 ( vir )     95.111      2.349      0.000     10.468      1.000    107.928
     9 ( vir )     95.111      2.349      0.000     10.468      1.000    107.928
    10 ( vir )     95.111      2.349      0.000     10.468      1.000    107.928
    11 ( vir )     95.111      2.349      0.000     10.468      1.000    107.928
   
  GW HOMO-LUMO gap (eV)                                                    34.53
  

  Total RI-RPA Time=                                                    1.668643
  RI-RPA energy  =                                             -0.08051453426375

  Total EXX Time=                                                       1.850168
  EXX energy  =                                                -1.01391859300195

 ENERGY| Total FORCE_EVAL ( QS ) energy (a.u.):               -2.940681373715856


 -------------------------------------------------------------------------------
 -                                                                             -
 -                                DBCSR STATISTICS                             -
 -                                                                             -
 -------------------------------------------------------------------------------
 COUNTER                                    TOTAL       BLAS       SMM       ACC
 flops    30 x    30 x    30               108000     100.0%      0.0%      0.0%
 flops    91 x    91 x    91             18085704     100.0%      0.0%      0.0%
 flops    30 x    90 x    30             20250000     100.0%      0.0%      0.0%
 flops    91 x    30 x    30             43243200     100.0%      0.0%      0.0%
 flops    91 x    30 x    91             65585520     100.0%      0.0%      0.0%
 flops    91 x    91 x    35             83472480     100.0%      0.0%      0.0%
 flops    91 x    91 x    40             95397120     100.0%      0.0%      0.0%
 flops    30 x   120 x    30            102600000     100.0%      0.0%      0.0%
 flops inhomo. stacks                       12600     100.0%      0.0%      0.0%
 flops total                       428.754624E+06     100.0%      0.0%      0.0%
 flops max/rank                    140.384784E+06     100.0%      0.0%      0.0%
 matmuls inhomo. stacks                         7     100.0%      0.0%      0.0%
 matmuls total                               1305     100.0%      0.0%      0.0%
 number of processed stacks                  1305     100.0%      0.0%      0.0%
 average stack size                                     1.0       0.0       0.0
 marketing flops                   428.684768E+06
 -------------------------------------------------------------------------------
 # multiplications                            454
 max memory usage/rank             420.503552E+06
 # max total images/rank                        3
 # max 3D layers                                1
 # MPI messages exchanged                  190152
 MPI messages size (bytes):
  total size                        93.391968E+06
  min size                           0.000000E+00
  max size                          66.248000E+03
  average size                     491.143768E+00
 MPI breakdown and total messages size (bytes):
             size <=      128              186816                        0
       128 < size <=     8192                 864                  5831040
      8192 < size <=    32768                1716                 37477440
     32768 < size <=   131072                 756                 50083488
    131072 < size <=  4194304                   0                        0
   4194304 < size <= 16777216                   0                        0
  16777216 < size                               0                        0
 -------------------------------------------------------------------------------

 *** WARNING in dbcsr_mm.F:278 :: Using a non-square number of MPI ranks ***
 *** might lead to poor performance. Used ranks: 24 Suggested: 25 49     ***

 -------------------------------------------------------------------------------
 -                                                                             -
 -                      DBCSR MESSAGE PASSING PERFORMANCE                      -
 -                                                                             -
 -------------------------------------------------------------------------------

 ROUTINE             CALLS      AVE VOLUME [Bytes]
 MP_Group               35
 MP_Bcast                9                     12.
 MP_Allreduce         2571                      8.
 MP_Alltoall          1766                   5045.
 MP_Wait             24240
 MP_ISend            17662                   1241.
 MP_IRecv            17662                     56.
 MP_Memory           33890
 -------------------------------------------------------------------------------


 MEMORY| Estimated peak process memory [MiB]                                 402

 -------------------------------------------------------------------------------
 ----                             MULTIGRID INFO                            ----
 -------------------------------------------------------------------------------
 count for grid        1:          18026          cutoff [a.u.]          200.00
 count for grid        2:           3194          cutoff [a.u.]           66.67
 count for grid        3:            965          cutoff [a.u.]           22.22
 count for grid        4:             96          cutoff [a.u.]            7.41
 total gridlevel count  :          22281

 -------------------------------------------------------------------------------
 -                                                                             -
 -                         MESSAGE PASSING PERFORMANCE                         -
 -                                                                             -
 -------------------------------------------------------------------------------

 ROUTINE             CALLS      AVE VOLUME [Bytes]
 MP_Group                5
 MP_Bcast              126                2355940.
 MP_Allreduce          432                   8235.
 MP_Sync                70
 MP_Alltoall           233                8750855.
 MP_ISendRecv          828                  67131.
 MP_Wait              2616
 MP_comm_split          16
 MP_ISend             3832                 128969.
 MP_IRecv             3282                 155115.
 -------------------------------------------------------------------------------


 -------------------------------------------------------------------------------
 -                                                                             -
 -                           R E F E R E N C E S                               -
 -                                                                             -
 -------------------------------------------------------------------------------
 
 CP2K version 7.0 (Development Version), the CP2K developers group (2018).
 CP2K is freely available from https://www.cp2k.org/ .

 Schuett, Ole; Messmer, Peter; Hutter, Juerg; VandeVondele, Joost. 
 Electronic Structure Calculations on Graphics Processing Units, John Wiley & Sons, Ltd, 173-190 (2016). 
 GPU-Accelerated Sparse Matrix-Matrix Multiplication for Linear Scaling Density Functional Theory.
 https://dx.doi.org/10.1002/9781118670712.ch8


 Del Ben, M; Schuett, O; Wentz, T; Messmer, P; Hutter, J;
 VandeVondele, J. 
 COMPUTER PHYSICS COMMUNICATIONS, 187, 120-129 (2015). 
 Enabling simulation at the fifth rung of DFT: Large scale RPA
 calculations with excellent time to solution.
 https://dx.doi.org/10.1016/j.cpc.2014.10.021


 Borstnik, U; VandeVondele, J; Weber, V; Hutter, J. 
 PARALLEL COMPUTING, 40 (5-6), 47-58 (2014). 
 Sparse matrix multiplication: The distributed block-compressed sparse
 row library.
 https://dx.doi.org/10.1016/j.parco.2014.03.012


 Hutter, J; Iannuzzi, M; Schiffmann, F; VandeVondele, J. 
 WILEY INTERDISCIPLINARY REVIEWS-COMPUTATIONAL MOLECULAR SCIENCE, 4 (1), 15-25 (2014). 
 CP2K: atomistic simulations of condensed matter systems.
 https://dx.doi.org/10.1002/wcms.1159


 Del Ben, M; Hutter, J; VandeVondele, J. 
 JOURNAL OF CHEMICAL THEORY AND COMPUTATION, 9 (6), 2654-2671 (2013). 
 Electron Correlation in the Condensed Phase from a Resolution of
 Identity Approach Based on the Gaussian and Plane Waves Scheme.
 https://dx.doi.org/10.1021/ct4002202


 Del Ben, M; Hutter, J; VandeVondele, J. 
 JOURNAL OF CHEMICAL THEORY AND COMPUTATION, 8 (11), 4177-4188 (2012). 
 Second-Order Moller-Plesset Perturbation Theory in the Condensed Phase:
 An Efficient and Massively Parallel Gaussian and Plane Waves Approach.
 https://dx.doi.org/10.1021/ct300531w


 Guidon, M; Hutter, J; VandeVondele, J. 
 JOURNAL OF CHEMICAL THEORY AND COMPUTATION, 5 (11), 3010-3021 (2009). 
 Robust Periodic Hartree-Fock Exchange for Large-Scale Simulations Using
 Gaussian Basis Sets.
 https://dx.doi.org/10.1021/ct900494g


 Guidon, M; Schiffmann, F; Hutter, J; VandeVondele, J. 
 JOURNAL OF CHEMICAL PHYSICS, 128 (21), 214104 (2008). 
 Ab initio molecular dynamics using hybrid density functionals.
 https://dx.doi.org/10.1063/1.2931945


 Frigo, M; Johnson, SG. 
 PROCEEDINGS OF THE IEEE, 93 (2), 216-231 (2005). 
 The design and implementation of FFTW3.
 https://dx.doi.org/10.1109/JPROC.2004.840301


 Lippert, G; Hutter, J; Parrinello, M. 
 THEORETICAL CHEMISTRY ACCOUNTS, 103 (2), 124-140 (1999). 
 The Gaussian and augmented-plane-wave density functional method for ab
 initio molecular dynamics simulations.
 https://dx.doi.org/10.1007/s002140050523


 Krack, M; Parrinello, M. 
 PHYSICAL CHEMISTRY CHEMICAL PHYSICS, 2 (10), 2105-2112 (2000). 
 All-electron ab-initio molecular dynamics.
 https://dx.doi.org/10.1039/b001167n


 Martyna, GJ; Tuckerman, ME. 
 JOURNAL OF CHEMICAL PHYSICS, 110 (6), 2810-2821 (1999). 
 A reciprocal space based method for treating long range interactions in
 ab initio and force-field-based calculations in clusters.
 https://dx.doi.org/10.1063/1.477923


 Perdew, JP; Burke, K; Ernzerhof, M. 
 PHYSICAL REVIEW LETTERS, 77 (18), 3865-3868 (1996). 
 Generalized gradient approximation made simple.
 https://dx.doi.org/10.1103/PhysRevLett.77.3865


 -------------------------------------------------------------------------------
 -                                                                             -
 -                                T I M I N G                                  -
 -                                                                             -
 -------------------------------------------------------------------------------
 SUBROUTINE                       CALLS  ASD         SELF TIME        TOTAL TIME
                                MAXIMUM       AVERAGE  MAXIMUM  AVERAGE  MAXIMUM
 CP2K                                 1  1.0    0.032    0.051   19.858   19.858
 qs_energies                          1  2.0    0.000    0.000   18.777   18.777
 scf_env_do_scf                       1  3.0    0.000    0.000   14.482   14.482
 scf_env_do_scf_inner_loop            7  4.0    0.001    0.001   14.482   14.482
 qs_ks_build_kohn_sham_matrix         8  6.8    0.002    0.003   12.777   12.777
 qs_ks_update_qs_env                  7  5.0    0.000    0.000   11.915   11.915
 rebuild_ks_matrix                    7  6.0    0.000    0.000   11.914   11.915
 pw_transfer                        165  9.4    0.014    0.018    9.656    9.863
 fft_wrap_pw1pw2                    139 10.6    0.002    0.002    9.508    9.715
 fft_wrap_pw1pw2_200                 90 11.7    0.540    0.606    8.708    8.918
 fft3d_ps                           139 12.6    3.279    3.636    7.036    7.362
 qs_vxc_create                        8  7.8    0.000    0.000    5.640    5.640
 xc_vxc_pw_create                     7  9.0    0.078    0.106    5.640    5.640
 rs_pw_transfer                      82  9.3    0.002    0.002    3.685    3.915
 mp_alltoall_z22v                   139 14.6    2.663    3.557    2.663    3.557
 mp2_main                             1  3.0    0.000    0.000    3.527    3.533
 qs_rho_update_rho                    8  5.0    0.000    0.000    2.873    2.873
 calculate_rho_elec                   8  6.0    0.017    0.088    2.871    2.871
 xc_rho_set_and_dset_create           7 10.0    0.050    0.068    2.447    2.714
 density_rs2pw                        8  7.0    0.001    0.001    2.661    2.702
 mp_waitany                        1432 11.2    1.489    2.418    1.489    2.418
 yz_to_x                             70 13.2    0.449    0.603    1.906    2.415
 sum_up_and_integrate                 8  7.8    0.024    0.040    2.227    2.278
 integrate_v_rspace                   8  8.8    0.004    0.055    2.203    2.257
 potential_pw2rs                      8  9.8    0.002    0.002    2.194    2.204
 x_to_yz                             69 14.0    0.639    0.753    1.845    2.079
 compute_vec_Sigma_x_minus_vxc_       1  4.0    0.000    0.000    1.850    1.850
 prepare_gapw_den                     8  7.8    0.000    0.000    1.804    1.849
 put_rho0_on_grid                     8  8.8    0.012    0.014    1.692    1.737
 mp2_gpw_main                         1  4.0    0.000    0.000    1.669    1.669
 rpa_ri_compute_en                    1  5.0    0.000    0.000    1.647    1.648
 rpa_num_int                          1  6.0    0.000    0.002    1.646    1.647
 rs_pw_transfer_PW2RS_200            17 10.6    0.766    0.965    1.493    1.596
 rs_pw_transfer_RS2PW_200            17  9.8    0.719    0.868    1.430    1.595
 pw_gather_p                         70 12.2    0.996    1.206    0.996    1.206
 mp_sum_d                           818  5.1    0.867    1.107    0.867    1.107
 pw_scatter_p                        69 13.0    0.905    1.019    0.905    1.019
 integrate_four_center                1  5.0    0.002    0.004    0.984    0.984
 qs_init_subsys                       1  2.0    0.002    0.003    0.945    0.946
 qs_env_setup                         1  3.0    0.000    0.000    0.881    0.904
 qs_env_rebuild_pw_env                2  3.5    0.000    0.000    0.880    0.903
 pw_env_rebuild                       1  5.0    0.001    0.001    0.880    0.903
 pw_poisson_solve                     9  7.3    0.201    0.232    0.894    0.895
 pw_grid_setup                        5  6.0    0.000    0.000    0.856    0.860
 pw_grid_setup_internal               5  7.0    0.015    0.018    0.855    0.860
 integrate_vhg0_rspace                8  7.8    0.007    0.009    0.849    0.858
 mp_sum_dm                           30  7.7    0.383    0.667    0.383    0.667
 pw_grid_sort                         5  8.0    0.336    0.447    0.481    0.626
 rs_grid_zero                        74  9.2    0.472    0.545    0.472    0.545
 calc_screening_functions             1  6.0    0.216    0.270    0.433    0.539
 dbcsr_multiply_generic             454  9.8    0.016    0.019    0.512    0.532
 GW_postprocessing                    1  7.0    0.000    0.000    0.499    0.499
 compute_self_energy_im_time_gw       1  8.0    0.001    0.001    0.499    0.499
 pw_poisson_rebuild                   9  8.3    0.004    0.005    0.450    0.496
 MTin_create_screen_fn                1 10.0    0.009    0.014    0.446    0.491
 powell_optimize                  84717  7.0    0.380    0.487    0.380    0.487
 fft_wrap_pw1pw2_70                  16 11.4    0.011    0.013    0.372    0.450
 mp_sum_l                          2243 10.8    0.246    0.439    0.246    0.439
 pw_derive                           42 10.5    0.343    0.428    0.343    0.428
 mp_sum_dv                           48  8.2    0.256    0.418    0.256    0.418
 scf_post_calculation_gpw             1  3.0    0.000    0.000    0.404    0.414
 fft_wrap_pw1pw2_400                  1 13.0    0.015    0.021    0.342    0.400
 -------------------------------------------------------------------------------

 The number of warnings for this run is : 3
 
 -------------------------------------------------------------------------------
  **** **** ******  **  PROGRAM ENDED AT                 2019-05-31 10:40:52.790
 ***** ** ***  *** **   PROGRAM RAN ON                                    tcopt4
 **    ****   ******    PROGRAM RAN BY                                   wilhelm
 ***** **    ** ** **   PROGRAM PROCESS ID                                 42248
  **** **  *******  **  PROGRAM STOPPED IN /data/wilhelm/2_job_test/11_GW100/3_c
                                           alcs/01_He
