 DBCSR| CPU Multiplication driver                                           BLAS
 DBCSR| Multrec recursion limit                                              512
 DBCSR| Multiplication stack size                                           1000
 DBCSR| Maximum elements for images                                    UNLIMITED
 DBCSR| Multiplicative factor virtual images                                   1
 DBCSR| Use multiplication densification                                       T
 DBCSR| Multiplication size stacks                                             3
 DBCSR| Number of 3D layers                                               SINGLE
 DBCSR| Use MPI memory allocation                                              T
 DBCSR| Use RMA algorithm                                                      F
 DBCSR| Use Communication thread                                               T
 DBCSR| Communication thread load                                             87


  **** **** ******  **  PROGRAM STARTED AT               2019-05-31 18:04:18.257
 ***** ** ***  *** **   PROGRAM STARTED ON                                tcopt4
 **    ****   ******    PROGRAM STARTED BY                               wilhelm
 ***** **    ** ** **   PROGRAM PROCESS ID                                 87818
  **** **  *******  **  PROGRAM STARTED IN /data/wilhelm/2_job_test/11_GW100/3_c
                                           alcs/66_NCH

 CP2K| version string:                    CP2K version 7.0 (Development Version)
 CP2K| source code revision number:                                  git:026fb12
 CP2K| cp2kflags: libint fftw3 libxc pexsi elpa=201705 parallel mpi3 scalapack q
 CP2K|            uip libderiv_max_am1=5 libint_max_am=6
 CP2K| is freely available from                            https://www.cp2k.org/
 CP2K| Program compiled at                         Sat May 11 13:15:02 CEST 2019
 CP2K| Program compiled on                                                tcopt4
 CP2K| Program compiled for                            local_valgrind_March_2019
 CP2K| Data directory path              /data/wilhelm/1_git_repository/cp2k/data
 CP2K| Input file name                                                    GW.inp

 GLOBAL| Force Environment number                                              1
 GLOBAL| Basis set file name                              BASIS_def2_QZVP_RI_ALL
 GLOBAL| Potential file name                                           POTENTIAL
 GLOBAL| MM Potential file name                                     MM_POTENTIAL
 GLOBAL| Coordinate file name                                         66_NCH.xyz
 GLOBAL| Method name                                                        CP2K
 GLOBAL| Project name                                                   ALL_ELEC
 GLOBAL| Preferred FFT library                                             FFTW3
 GLOBAL| Preferred diagonalization lib.                                       SL
 GLOBAL| Run type                                                         ENERGY
 GLOBAL| All-to-all communication in single precision                          F
 GLOBAL| FFTs using library dependent lengths                                  F
 GLOBAL| Global print level                                               MEDIUM
 GLOBAL| MPI I/O enabled                                                       T
 GLOBAL| Total number of message passing processes                            40
 GLOBAL| Number of threads for this process                                    1
 GLOBAL| This output is from process                                           0
 GLOBAL| CPU model name :  Intel(R) Xeon(R) CPU E5-2697 v3 @ 2.60GHz

 MEMORY| system memory details [Kb]
 MEMORY|                        rank 0           min           max       average
 MEMORY| MemTotal            396954008     396954008     396954008     396954008
 MEMORY| MemFree             376588172     376588172     376588172     376588172
 MEMORY| Buffers                342044        342044        342044        342044
 MEMORY| Cached               16159692      16159692      16159692      16159692
 MEMORY| Slab                   608496        608496        608496        608496
 MEMORY| SReclaimable           470708        470708        470708        470708
 MEMORY| MemLikelyFree       393560616     393560616     393560616     393560616


 *** Fundamental physical constants (SI units) ***

 *** Literature: B. J. Mohr and B. N. Taylor,
 ***             CODATA recommended values of the fundamental physical
 ***             constants: 2006, Web Version 5.1
 ***             http://physics.nist.gov/constants

 Speed of light in vacuum [m/s]                             2.99792458000000E+08
 Magnetic constant or permeability of vacuum [N/A**2]       1.25663706143592E-06
 Electric constant or permittivity of vacuum [F/m]          8.85418781762039E-12
 Planck constant (h) [J*s]                                  6.62606896000000E-34
 Planck constant (h-bar) [J*s]                              1.05457162825177E-34
 Elementary charge [C]                                      1.60217648700000E-19
 Electron mass [kg]                                         9.10938215000000E-31
 Electron g factor [ ]                                     -2.00231930436220E+00
 Proton mass [kg]                                           1.67262163700000E-27
 Fine-structure constant                                    7.29735253760000E-03
 Rydberg constant [1/m]                                     1.09737315685270E+07
 Avogadro constant [1/mol]                                  6.02214179000000E+23
 Boltzmann constant [J/K]                                   1.38065040000000E-23
 Atomic mass unit [kg]                                      1.66053878200000E-27
 Bohr radius [m]                                            5.29177208590000E-11

 *** Conversion factors ***

 [u] -> [a.u.]                                              1.82288848426455E+03
 [Angstrom] -> [Bohr] = [a.u.]                              1.88972613288564E+00
 [a.u.] = [Bohr] -> [Angstrom]                              5.29177208590000E-01
 [a.u.] -> [s]                                              2.41888432650478E-17
 [a.u.] -> [fs]                                             2.41888432650478E-02
 [a.u.] -> [J]                                              4.35974393937059E-18
 [a.u.] -> [N]                                              8.23872205491840E-08
 [a.u.] -> [K]                                              3.15774647902944E+05
 [a.u.] -> [kJ/mol]                                         2.62549961709828E+03
 [a.u.] -> [kcal/mol]                                       6.27509468713739E+02
 [a.u.] -> [Pa]                                             2.94210107994716E+13
 [a.u.] -> [bar]                                            2.94210107994716E+08
 [a.u.] -> [atm]                                            2.90362800883016E+08
 [a.u.] -> [eV]                                             2.72113838565563E+01
 [a.u.] -> [Hz]                                             6.57968392072181E+15
 [a.u.] -> [1/cm] (wave numbers)                            2.19474631370540E+05
 [a.u./Bohr**2] -> [1/cm]                                   5.14048714338585E+03
 

 CELL_TOP| Volume [angstrom^3]:                                         4096.000
 CELL_TOP| Vector a [angstrom    16.000     0.000     0.000    |a| =      16.000
 CELL_TOP| Vector b [angstrom     0.000    16.000     0.000    |b| =      16.000
 CELL_TOP| Vector c [angstrom     0.000     0.000    16.000    |c| =      16.000
 CELL_TOP| Angle (b,c), alpha [degree]:                                   90.000
 CELL_TOP| Angle (a,c), beta  [degree]:                                   90.000
 CELL_TOP| Angle (a,b), gamma [degree]:                                   90.000
 CELL_TOP| Numerically orthorhombic:                                         YES

 GENERATE|  Preliminary Number of Bonds generated:                             0
 GENERATE|  Achieved consistency in connectivity generation.

 CELL| Volume [angstrom^3]:                                             4096.000
 CELL| Vector a [angstrom]:      16.000     0.000     0.000    |a| =      16.000
 CELL| Vector b [angstrom]:       0.000    16.000     0.000    |b| =      16.000
 CELL| Vector c [angstrom]:       0.000     0.000    16.000    |c| =      16.000
 CELL| Angle (b,c), alpha [degree]:                                       90.000
 CELL| Angle (a,c), beta  [degree]:                                       90.000
 CELL| Angle (a,b), gamma [degree]:                                       90.000
 CELL| Numerically orthorhombic:                                             YES

 CELL_REF| Volume [angstrom^3]:                                         4096.000
 CELL_REF| Vector a [angstrom    16.000     0.000     0.000    |a| =      16.000
 CELL_REF| Vector b [angstrom     0.000    16.000     0.000    |b| =      16.000
 CELL_REF| Vector c [angstrom     0.000     0.000    16.000    |c| =      16.000
 CELL_REF| Angle (b,c), alpha [degree]:                                   90.000
 CELL_REF| Angle (a,c), beta  [degree]:                                   90.000
 CELL_REF| Angle (a,b), gamma [degree]:                                   90.000
 CELL_REF| Numerically orthorhombic:                                         YES

 *******************************************************************************
 *******************************************************************************
 **                                                                           **
 **     #####                         ##              ##                      **
 **    ##   ##            ##          ##              ##                      **
 **   ##     ##                       ##            ######                    **
 **   ##     ##  ##   ##  ##   #####  ##  ##   ####   ##    #####    #####    **
 **   ##     ##  ##   ##  ##  ##      ## ##   ##      ##   ##   ##  ##   ##   **
 **   ##  ## ##  ##   ##  ##  ##      ####     ###    ##   ######   ######    **
 **    ##  ###   ##   ##  ##  ##      ## ##      ##   ##   ##       ##        **
 **     #######   #####   ##   #####  ##  ##  ####    ##    #####   ##        **
 **           ##                                                    ##        **
 **                                                                           **
 **                                                ... make the atoms dance   **
 **                                                                           **
 **            Copyright (C) by CP2K developers group (2000 - 2019)           **
 **                                                                           **
 *******************************************************************************

 DFT| Spin restricted Kohn-Sham (RKS) calculation                            RKS
 DFT| Multiplicity                                                             1
 DFT| Number of spin states                                                    1
 DFT| Charge                                                                   0
 DFT| Self-interaction correction (SIC)                                       NO
 DFT| Cutoffs: density                                              1.000000E-10
 DFT|          gradient                                             1.000000E-10
 DFT|          tau                                                  1.000000E-10
 DFT|          cutoff_smoothing_range                               0.000000E+00
 DFT| XC density smoothing                                                  NONE
 DFT| XC derivatives                                                          PW
 FUNCTIONAL| ROUTINE=NEW
 FUNCTIONAL| PBE:
 FUNCTIONAL| J.P.Perdew, K.Burke, M.Ernzerhof, Phys. Rev. Letter, vol. 77, n 18,
 FUNCTIONAL|  pp. 3865-3868, (1996){spin unpolarized}                           

 QS| Method:                                                                GAPW
 QS| Density plane wave grid type                        NON-SPHERICAL FULLSPACE
 QS| Number of grid levels:                                                    4
 QS| Density cutoff [a.u.]:                                                200.0
 QS| Multi grid cutoff [a.u.]: 1) grid level                               200.0
 QS|                           2) grid level                                66.7
 QS|                           3) grid level                                22.2
 QS|                           4) grid level                                 7.4
 QS| Grid level progression factor:                                          3.0
 QS| Relative density cutoff [a.u.]:                                        25.0
 QS| Consistent realspace mapping and integration 
 QS| Interaction thresholds: eps_pgf_orb:                                1.0E-05
 QS|                         eps_filter_matrix:                          0.0E+00
 QS|                         eps_core_charge:                            1.0E-12
 QS|                         eps_rho_gspace:                             1.0E-10
 QS|                         eps_rho_rspace:                             1.0E-10
 QS|                         eps_gvg_rspace:                             1.0E-05
 QS|                         eps_ppl:                                    1.0E-02
 QS|                         eps_ppnl:                                   1.0E-07
 QS| GAPW|                   eps_fit:                                    1.0E-04
 QS| GAPW|                   eps_iso:                                    1.0E-12
 QS| GAPW|                   eps_svd:                                    1.0E-08
 QS| GAPW|                   eps_cpc:                                    1.0E-10
 QS| GAPW|   atom-r-grid: quadrature:                 GC_LOG                        
 QS| GAPW|      atom-s-grid:  max l :                                          8
 QS| GAPW|      max_l_rho0 :                                                   2


 ATOMIC KIND INFORMATION

  1. Atomic kind: C                                     Number of atoms:       1

     Orbital Basis Set                                                 def2-QZVP

       Number of orbital shell sets:                                          17
       Number of orbital shells:                                              17
       Number of primitive Cartesian functions:                               29
       Number of Cartesian basis functions:                                   72
       Number of spherical basis functions:                                   57
       Norm type:                                                              2

       Normalised Cartesian orbitals:

                        Set   Shell   Orbital            Exponent    Coefficient

                          1       1    1s            67025.071029       0.210754
                                                     10039.986538       0.394420
                                                      2284.931691       0.681489
                                                       647.141221       1.107503
                                                       211.094723       1.690216
                                                        76.177644       2.371646
                                                        29.633839       2.879905
                                                        12.187785       2.751196

                          2       1    1s               53.026006       1.279547
                                                        15.258503       5.110319

                          3       1    1s                5.240396       2.468500

                          4       1    1s                2.290502       1.326961

                          5       1    1s                0.696733       0.543513

                          6       1    1s                0.275993       0.271384

                          7       1    1s                0.107399       0.133709

                          8       1    1px             105.125551       1.197879
                                                        24.884461       1.548521
                                                         7.863723       1.667474
                                                         2.840700       1.549652
                                                         1.122714       1.157594
                          8       1    1py             105.125551       1.197879
                                                        24.884461       1.548521
                                                         7.863723       1.667474
                                                         2.840700       1.549652
                                                         1.122714       1.157594
                          8       1    1pz             105.125551       1.197879
                                                        24.884461       1.548521
                                                         7.863723       1.667474
                                                         2.840700       1.549652
                                                         1.122714       1.157594

                          9       1    1px               0.460507       0.540736
                          9       1    1py               0.460507       0.540736
                          9       1    1pz               0.460507       0.540736

                         10       1    1px               0.189375       0.178071
                         10       1    1py               0.189375       0.178071
                         10       1    1pz               0.189375       0.178071

                         11       1    1px               0.075984       0.056865
                         11       1    1py               0.075984       0.056865
                         11       1    1pz               0.075984       0.056865

                         12       1    1dx2              1.848000       4.821009
                         12       1    1dxy              1.848000       8.350232
                         12       1    1dxz              1.848000       8.350232
                         12       1    1dy2              1.848000       4.821009
                         12       1    1dyz              1.848000       8.350232
                         12       1    1dz2              1.848000       4.821009

                         13       1    1dx2              0.649000       0.772392
                         13       1    1dxy              0.649000       1.337822
                         13       1    1dxz              0.649000       1.337822
                         13       1    1dy2              0.649000       0.772392
                         13       1    1dyz              0.649000       1.337822
                         13       1    1dz2              0.649000       0.772392

                         14       1    1dx2              0.228000       0.123821
                         14       1    1dxy              0.228000       0.214465
                         14       1    1dxz              0.228000       0.214465
                         14       1    1dy2              0.228000       0.123821
                         14       1    1dyz              0.228000       0.214465
                         14       1    1dz2              0.228000       0.123821

                         15       1    1fx3              1.419000       3.235302
                         15       1    1fx2y             1.419000       7.234355
                         15       1    1fx2z             1.419000       7.234355
                         15       1    1fxy2             1.419000       7.234355
                         15       1    1fxyz             1.419000      12.530271
                         15       1    1fxz2             1.419000       7.234355
                         15       1    1fy3              1.419000       3.235302
                         15       1    1fy2z             1.419000       7.234355
                         15       1    1fyz2             1.419000       7.234355
                         15       1    1fz3              1.419000       3.235302

                         16       1    1fx3              0.485000       0.288984
                         16       1    1fx2y             0.485000       0.646187
                         16       1    1fx2z             0.485000       0.646187
                         16       1    1fxy2             0.485000       0.646187
                         16       1    1fxyz             0.485000       1.119229
                         16       1    1fxz2             0.485000       0.646187
                         16       1    1fy3              0.485000       0.288984
                         16       1    1fy2z             0.485000       0.646187
                         16       1    1fyz2             0.485000       0.646187
                         16       1    1fz3              0.485000       0.288984

                         17       1    1gx4              1.011000       1.146835
                         17       1    1gx3y             1.011000       3.034241
                         17       1    1gx3z             1.011000       3.034241
                         17       1    1gx2y2            1.011000       3.917189
                         17       1    1gx2yz            1.011000       6.784770
                         17       1    1gx2z2            1.011000       3.917189
                         17       1    1gxy3             1.011000       3.034241
                         17       1    1gxy2z            1.011000       6.784770
                         17       1    1gxyz2            1.011000       6.784770
                         17       1    1gxz3             1.011000       3.034241
                         17       1    1gy4              1.011000       1.146835
                         17       1    1gy3z             1.011000       3.034241
                         17       1    1gy2z2            1.011000       3.917189
                         17       1    1gyz3             1.011000       3.034241
                         17       1    1gz4              1.011000       1.146835

     RI Auxiliary Basis Set                                                RI-5Z

       Number of orbital shell sets:                                          39
       Number of orbital shells:                                              39
       Number of primitive Cartesian functions:                               39
       Number of Cartesian basis functions:                                  287
       Number of spherical basis functions:                                  193
       Norm type:                                                              2

       Normalised Cartesian orbitals:

                        Set   Shell   Orbital            Exponent    Coefficient

                          1       1    1s              247.064000      44.413724

                          2       1    1s               53.400400      14.078892

                          3       1    1s               13.932000       5.139492

                          4       1    1s                6.151790       2.783949

                          5       1    1s                2.838270       1.558477

                          6       1    1s                1.697980       1.060131

                          7       1    1s                0.944763       0.682971

                          8       1    1s                0.555806       0.458778

                          9       1    1s                0.257433       0.257578

                         10       1    1s                0.118498       0.143944

                         11       1    1px              51.517500     196.735876
                         11       1    1py              51.517500     196.735876
                         11       1    1pz              51.517500     196.735876

                         12       1    1px              14.097200      38.936433
                         12       1    1py              14.097200      38.936433
                         12       1    1pz              14.097200      38.936433

                         13       1    1px               5.053190      10.799338
                         13       1    1py               5.053190      10.799338
                         13       1    1pz               5.053190      10.799338

                         14       1    1px               2.540790       4.572472
                         14       1    1py               2.540790       4.572472
                         14       1    1pz               2.540790       4.572472

                         15       1    1px               1.420590       2.210681
                         15       1    1py               1.420590       2.210681
                         15       1    1pz               1.420590       2.210681

                         16       1    1px               0.705145       0.921060
                         16       1    1py               0.705145       0.921060
                         16       1    1pz               0.705145       0.921060

                         17       1    1px               0.353612       0.388686
                         17       1    1py               0.353612       0.388686
                         17       1    1pz               0.353612       0.388686

                         18       1    1px               0.223793       0.219406
                         18       1    1py               0.223793       0.219406
                         18       1    1pz               0.223793       0.219406

                         19       1    1dx2             12.844800     143.443975
                         19       1    1dxy             12.844800     248.452253
                         19       1    1dxz             12.844800     248.452253
                         19       1    1dy2             12.844800     143.443975
                         19       1    1dyz             12.844800     248.452253
                         19       1    1dz2             12.844800     143.443975

                         20       1    1dx2              4.999910      27.516506
                         20       1    1dxy              4.999910      47.659986
                         20       1    1dxz              4.999910      47.659986
                         20       1    1dy2              4.999910      27.516506
                         20       1    1dyz              4.999910      47.659986
                         20       1    1dz2              4.999910      27.516506

                         21       1    1dx2              3.000150      11.256663
                         21       1    1dxy              3.000150      19.497112
                         21       1    1dxz              3.000150      19.497112
                         21       1    1dy2              3.000150      11.256663
                         21       1    1dyz              3.000150      19.497112
                         21       1    1dz2              3.000150      11.256663

                         22       1    1dx2              1.639980       3.911803
                         22       1    1dxy              1.639980       6.775441
                         22       1    1dxz              1.639980       6.775441
                         22       1    1dy2              1.639980       3.911803
                         22       1    1dyz              1.639980       6.775441
                         22       1    1dz2              1.639980       3.911803

                         23       1    1dx2              0.759964       1.018116
                         23       1    1dxy              0.759964       1.763429
                         23       1    1dxz              0.759964       1.763429
                         23       1    1dy2              0.759964       1.018116
                         23       1    1dyz              0.759964       1.763429
                         23       1    1dz2              0.759964       1.018116

                         24       1    1dx2              0.413013       0.350224
                         24       1    1dxy              0.413013       0.606606
                         24       1    1dxz              0.413013       0.606606
                         24       1    1dy2              0.413013       0.350224
                         24       1    1dyz              0.413013       0.606606
                         24       1    1dz2              0.413013       0.350224

                         25       1    1dx2              0.211749       0.108792
                         25       1    1dxy              0.211749       0.188433
                         25       1    1dxz              0.211749       0.188433
                         25       1    1dy2              0.211749       0.108792
                         25       1    1dyz              0.211749       0.188433
                         25       1    1dz2              0.211749       0.108792

                         26       1    1fx3              7.559750     139.507056
                         26       1    1fx2y             7.559750     311.947262
                         26       1    1fx2z             7.559750     311.947262
                         26       1    1fxy2             7.559750     311.947262
                         26       1    1fxyz             7.559750     540.308506
                         26       1    1fxz2             7.559750     311.947262
                         26       1    1fy3              7.559750     139.507056
                         26       1    1fy2z             7.559750     311.947262
                         26       1    1fyz2             7.559750     311.947262
                         26       1    1fz3              7.559750     139.507056

                         27       1    1fx3              3.116540      18.998444
                         27       1    1fx2y             3.116540      42.481813
                         27       1    1fx2z             3.116540      42.481813
                         27       1    1fxy2             3.116540      42.481813
                         27       1    1fxyz             3.116540      73.580658
                         27       1    1fxz2             3.116540      42.481813
                         27       1    1fy3              3.116540      18.998444
                         27       1    1fy2z             3.116540      42.481813
                         27       1    1fyz2             3.116540      42.481813
                         27       1    1fz3              3.116540      18.998444

                         28       1    1fx3              2.054360       7.438351
                         28       1    1fx2y             2.054360      16.632659
                         28       1    1fx2z             2.054360      16.632659
                         28       1    1fxy2             2.054360      16.632659
                         28       1    1fxyz             2.054360      28.808611
                         28       1    1fxz2             2.054360      16.632659
                         28       1    1fy3              2.054360       7.438351
                         28       1    1fy2z             2.054360      16.632659
                         28       1    1fyz2             2.054360      16.632659
                         28       1    1fz3              2.054360       7.438351

                         29       1    1fx3              1.114180       1.877604
                         29       1    1fx2y             1.114180       4.198450
                         29       1    1fx2z             1.114180       4.198450
                         29       1    1fxy2             1.114180       4.198450
                         29       1    1fxyz             1.114180       7.271929
                         29       1    1fxz2             1.114180       4.198450
                         29       1    1fy3              1.114180       1.877604
                         29       1    1fy2z             1.114180       4.198450
                         29       1    1fyz2             1.114180       4.198450
                         29       1    1fz3              1.114180       1.877604

                         30       1    1fx3              0.603184       0.472027
                         30       1    1fx2y             0.603184       1.055484
                         30       1    1fx2z             0.603184       1.055484
                         30       1    1fxy2             0.603184       1.055484
                         30       1    1fxyz             0.603184       1.828151
                         30       1    1fxz2             0.603184       1.055484
                         30       1    1fy3              0.603184       0.472027
                         30       1    1fy2z             0.603184       1.055484
                         30       1    1fyz2             0.603184       1.055484
                         30       1    1fz3              0.603184       0.472027

                         31       1    1fx3              0.334627       0.125377
                         31       1    1fx2y             0.334627       0.280351
                         31       1    1fx2z             0.334627       0.280351
                         31       1    1fxy2             0.334627       0.280351
                         31       1    1fxyz             0.334627       0.485582
                         31       1    1fxz2             0.334627       0.280351
                         31       1    1fy3              0.334627       0.125377
                         31       1    1fy2z             0.334627       0.280351
                         31       1    1fyz2             0.334627       0.280351
                         31       1    1fz3              0.334627       0.125377

                         32       1    1gx4              4.244100      59.271490
                         32       1    1gx3y             4.244100     156.817624
                         32       1    1gx3z             4.244100     156.817624
                         32       1    1gx2y2            4.244100     202.450681
                         32       1    1gx2yz            4.244100     350.654866
                         32       1    1gx2z2            4.244100     202.450681
                         32       1    1gxy3             4.244100     156.817624
                         32       1    1gxy2z            4.244100     350.654866
                         32       1    1gxyz2            4.244100     350.654866
                         32       1    1gxz3             4.244100     156.817624
                         32       1    1gy4              4.244100      59.271490
                         32       1    1gy3z             4.244100     156.817624
                         32       1    1gy2z2            4.244100     202.450681
                         32       1    1gyz3             4.244100     156.817624
                         32       1    1gz4              4.244100      59.271490

                         33       1    1gx4              2.155990       9.203732
                         33       1    1gx3y             2.155990      24.350786
                         33       1    1gx3z             2.155990      24.350786
                         33       1    1gx2y2            2.155990      31.436730
                         33       1    1gx2yz            2.155990      54.450013
                         33       1    1gx2z2            2.155990      31.436730
                         33       1    1gxy3             2.155990      24.350786
                         33       1    1gxy2z            2.155990      54.450013
                         33       1    1gxyz2            2.155990      54.450013
                         33       1    1gxz3             2.155990      24.350786
                         33       1    1gy4              2.155990       9.203732
                         33       1    1gy3z             2.155990      24.350786
                         33       1    1gy2z2            2.155990      31.436730
                         33       1    1gyz3             2.155990      24.350786
                         33       1    1gz4              2.155990       9.203732

                         34       1    1gx4              1.023150       1.185137
                         34       1    1gx3y             1.023150       3.135578
                         34       1    1gx3z             1.023150       3.135578
                         34       1    1gx2y2            1.023150       4.048013
                         34       1    1gx2yz            1.023150       7.011365
                         34       1    1gx2z2            1.023150       4.048013
                         34       1    1gxy3             1.023150       3.135578
                         34       1    1gxy2z            1.023150       7.011365
                         34       1    1gxyz2            1.023150       7.011365
                         34       1    1gxz3             1.023150       3.135578
                         34       1    1gy4              1.023150       1.185137
                         34       1    1gy3z             1.023150       3.135578
                         34       1    1gy2z2            1.023150       4.048013
                         34       1    1gyz3             1.023150       3.135578
                         34       1    1gz4              1.023150       1.185137

                         35       1    1gx4              0.593235       0.264734
                         35       1    1gx3y             0.593235       0.700419
                         35       1    1gx3z             0.593235       0.700419
                         35       1    1gx2y2            0.593235       0.904237
                         35       1    1gx2yz            0.593235       1.566185
                         35       1    1gx2z2            0.593235       0.904237
                         35       1    1gxy3             0.593235       0.700419
                         35       1    1gxy2z            0.593235       1.566185
                         35       1    1gxyz2            0.593235       1.566185
                         35       1    1gxz3             0.593235       0.700419
                         35       1    1gy4              0.593235       0.264734
                         35       1    1gy3z             0.593235       0.700419
                         35       1    1gy2z2            0.593235       0.904237
                         35       1    1gyz3             0.593235       0.700419
                         35       1    1gz4              0.593235       0.264734

                         36       1    1hx5              2.702190      18.768121
                         36       1    1hx4y             2.702190      56.304362
                         36       1    1hx4z             2.702190      56.304362
                         36       1    1hx3y2            2.702190      86.006333
                         36       1    1hx3yz            2.702190     148.967339
                         36       1    1hx3z2            2.702190      86.006333
                         36       1    1hx2y3            2.702190      86.006333
                         36       1    1hx2y2z           2.702190     192.316007
                         36       1    1hx2yz2           2.702190     192.316007
                         36       1    1hx2z3            2.702190      86.006333
                         36       1    1hxy4             2.702190      56.304362
                         36       1    1hxy3z            2.702190     148.967339
                         36       1    1hxy2z2           2.702190     192.316007
                         36       1    1hxyz3            2.702190     148.967339
                         36       1    1hxz4             2.702190      56.304362
                         36       1    1hy5              2.702190      18.768121
                         36       1    1hy4z             2.702190      56.304362
                         36       1    1hy3z2            2.702190      86.006333
                         36       1    1hy2z3            2.702190      86.006333
                         36       1    1hyz4             2.702190      56.304362
                         36       1    1hz5              2.702190      18.768121

                         37       1    1hx5              1.508080       2.819833
                         37       1    1hx4y             1.508080       8.459499
                         37       1    1hx4z             1.508080       8.459499
                         37       1    1hx3y2            1.508080      12.922099
                         37       1    1hx3yz            1.508080      22.381731
                         37       1    1hx3z2            1.508080      12.922099
                         37       1    1hx2y3            1.508080      12.922099
                         37       1    1hx2y2z           1.508080      28.894691
                         37       1    1hx2yz2           1.508080      28.894691
                         37       1    1hx2z3            1.508080      12.922099
                         37       1    1hxy4             1.508080       8.459499
                         37       1    1hxy3z            1.508080      22.381731
                         37       1    1hxy2z2           1.508080      28.894691
                         37       1    1hxyz3            1.508080      22.381731
                         37       1    1hxz4             1.508080       8.459499
                         37       1    1hy5              1.508080       2.819833
                         37       1    1hy4z             1.508080       8.459499
                         37       1    1hy3z2            1.508080      12.922099
                         37       1    1hy2z3            1.508080      12.922099
                         37       1    1hyz4             1.508080       8.459499
                         37       1    1hz5              1.508080       2.819833

                         38       1    1hx5              0.860125       0.454642
                         38       1    1hx4y             0.860125       1.363925
                         38       1    1hx4z             0.860125       1.363925
                         38       1    1hx3y2            0.860125       2.083430
                         38       1    1hx3yz            0.860125       3.608607
                         38       1    1hx3z2            0.860125       2.083430
                         38       1    1hx2y3            0.860125       2.083430
                         38       1    1hx2y2z           0.860125       4.658691
                         38       1    1hx2yz2           0.860125       4.658691
                         38       1    1hx2z3            0.860125       2.083430
                         38       1    1hxy4             0.860125       1.363925
                         38       1    1hxy3z            0.860125       3.608607
                         38       1    1hxy2z2           0.860125       4.658691
                         38       1    1hxyz3            0.860125       3.608607
                         38       1    1hxz4             0.860125       1.363925
                         38       1    1hy5              0.860125       0.454642
                         38       1    1hy4z             0.860125       1.363925
                         38       1    1hy3z2            0.860125       2.083430
                         38       1    1hy2z3            0.860125       2.083430
                         38       1    1hyz4             0.860125       1.363925
                         38       1    1hz5              0.860125       0.454642

                         39       1    1ix6              1.702580       3.291024
                         39       1    1ix5y             1.702580      10.915092
                         39       1    1ix5z             1.702580      10.915092
                         39       1    1ix4y2            1.702580      18.905493
                         39       1    1ix4yz            1.702580      32.745275
                         39       1    1ix4z2            1.702580      18.905493
                         39       1    1ix3y3            1.702580      22.369282
                         39       1    1ix3y2z           1.702580      50.019234
                         39       1    1ix3yz2           1.702580      50.019234
                         39       1    1ix3z3            1.702580      22.369282
                         39       1    1ix2y4            1.702580      18.905493
                         39       1    1ix2y3z           1.702580      50.019234
                         39       1    1ix2y2z2          1.702580      64.574554
                         39       1    1ix2yz3           1.702580      50.019234
                         39       1    1ix2z4            1.702580      18.905493
                         39       1    1ixy5             1.702580      10.915092
                         39       1    1ixy4z            1.702580      32.745275
                         39       1    1ixy3z2           1.702580      50.019234
                         39       1    1ixy2z3           1.702580      50.019234
                         39       1    1ixyz4            1.702580      32.745275
                         39       1    1ixz5             1.702580      10.915092
                         39       1    1iy6              1.702580       3.291024
                         39       1    1iy5z             1.702580      10.915092
                         39       1    1iy4z2            1.702580      18.905493
                         39       1    1iy3z3            1.702580      22.369282
                         39       1    1iy2z4            1.702580      18.905493
                         39       1    1iyz5             1.702580      10.915092
                         39       1    1iz6              1.702580       3.291024

     The atoms of this atomic kind are PAW atoms (GAPW):
       Hard Gaussian function radius:                                      1.512
       Rho0 radius:                                                        1.512
       Maximum GTO radius used for PAW projector construction:            24.566

     GAPW Soft Basis Set                                          def2-QZVP_soft

       Number of orbital shell sets:                                          17
       Number of orbital shells:                                              17
       Number of primitive Cartesian functions:                               15
       Number of Cartesian basis functions:                                   72
       Number of spherical basis functions:                                   57
       Norm type:                                                              2

       Normalised Cartesian orbitals:

                        Set   Shell   Orbital            Exponent    Coefficient

                          1       1    1s         

                          2       1    1s         

                          3       1    1s         

                          4       1    1s                2.290502       1.326961

                          5       1    1s                0.696733       0.543513

                          6       1    1s                0.275993       0.271384

                          7       1    1s                0.107399       0.133709

                          8       1    1px               2.840700       1.549652
                                                         1.122714       1.157594
                          8       1    1py               2.840700       1.549652
                                                         1.122714       1.157594
                          8       1    1pz               2.840700       1.549652
                                                         1.122714       1.157594

                          9       1    1px               0.460507       0.540736
                          9       1    1py               0.460507       0.540736
                          9       1    1pz               0.460507       0.540736

                         10       1    1px               0.189375       0.178071
                         10       1    1py               0.189375       0.178071
                         10       1    1pz               0.189375       0.178071

                         11       1    1px               0.075984       0.056865
                         11       1    1py               0.075984       0.056865
                         11       1    1pz               0.075984       0.056865

                         12       1    1dx2              1.848000       4.821009
                         12       1    1dxy              1.848000       8.350232
                         12       1    1dxz              1.848000       8.350232
                         12       1    1dy2              1.848000       4.821009
                         12       1    1dyz              1.848000       8.350232
                         12       1    1dz2              1.848000       4.821009

                         13       1    1dx2              0.649000       0.772392
                         13       1    1dxy              0.649000       1.337822
                         13       1    1dxz              0.649000       1.337822
                         13       1    1dy2              0.649000       0.772392
                         13       1    1dyz              0.649000       1.337822
                         13       1    1dz2              0.649000       0.772392

                         14       1    1dx2              0.228000       0.123821
                         14       1    1dxy              0.228000       0.214465
                         14       1    1dxz              0.228000       0.214465
                         14       1    1dy2              0.228000       0.123821
                         14       1    1dyz              0.228000       0.214465
                         14       1    1dz2              0.228000       0.123821

                         15       1    1fx3              1.419000       3.235302
                         15       1    1fx2y             1.419000       7.234355
                         15       1    1fx2z             1.419000       7.234355
                         15       1    1fxy2             1.419000       7.234355
                         15       1    1fxyz             1.419000      12.530271
                         15       1    1fxz2             1.419000       7.234355
                         15       1    1fy3              1.419000       3.235302
                         15       1    1fy2z             1.419000       7.234355
                         15       1    1fyz2             1.419000       7.234355
                         15       1    1fz3              1.419000       3.235302

                         16       1    1fx3              0.485000       0.288984
                         16       1    1fx2y             0.485000       0.646187
                         16       1    1fx2z             0.485000       0.646187
                         16       1    1fxy2             0.485000       0.646187
                         16       1    1fxyz             0.485000       1.119229
                         16       1    1fxz2             0.485000       0.646187
                         16       1    1fy3              0.485000       0.288984
                         16       1    1fy2z             0.485000       0.646187
                         16       1    1fyz2             0.485000       0.646187
                         16       1    1fz3              0.485000       0.288984

                         17       1    1gx4              1.011000       1.146835
                         17       1    1gx3y             1.011000       3.034241
                         17       1    1gx3z             1.011000       3.034241
                         17       1    1gx2y2            1.011000       3.917189
                         17       1    1gx2yz            1.011000       6.784770
                         17       1    1gx2z2            1.011000       3.917189
                         17       1    1gxy3             1.011000       3.034241
                         17       1    1gxy2z            1.011000       6.784770
                         17       1    1gxyz2            1.011000       6.784770
                         17       1    1gxz3             1.011000       3.034241
                         17       1    1gy4              1.011000       1.146835
                         17       1    1gy3z             1.011000       3.034241
                         17       1    1gy2z2            1.011000       3.917189
                         17       1    1gyz3             1.011000       3.034241
                         17       1    1gz4              1.011000       1.146835

     AE Potential information for                                            ALL

       Description:                                       All-electron potential
                                          Krack, Parrinello, PCCP 2, 2105 (2000)

       Gaussian exponent of the core charge distribution:               4.109048
       Electronic configuration (s p d ...):                           4   2   0

  2. Atomic kind: H                                     Number of atoms:       1

     Orbital Basis Set                                                 def2-QZVP

       Number of orbital shell sets:                                          10
       Number of orbital shells:                                              10
       Number of primitive Cartesian functions:                               13
       Number of Cartesian basis functions:                                   35
       Number of spherical basis functions:                                   30
       Norm type:                                                              2

       Normalised Cartesian orbitals:

                        Set   Shell   Orbital            Exponent    Coefficient

                          1       1    1s              190.691690       0.195396
                                                        28.605532       0.363661
                                                         6.509594       0.612837
                                                         1.841246       0.914889

                          2       1    1s                0.598537       0.484985

                          3       1    1s                0.213976       0.224225

                          4       1    1s                0.080316       0.107526

                          5       1    1px               2.292000       4.019836
                          5       1    1py               2.292000       4.019836
                          5       1    1pz               2.292000       4.019836

                          6       1    1px               0.838000       1.142865
                          6       1    1py               0.838000       1.142865
                          6       1    1pz               0.838000       1.142865

                          7       1    1px               0.292000       0.305963
                          7       1    1py               0.292000       0.305963
                          7       1    1pz               0.292000       0.305963

                          8       1    1dx2              2.062000       5.840024
                          8       1    1dxy              2.062000      10.115218
                          8       1    1dxz              2.062000      10.115218
                          8       1    1dy2              2.062000       5.840024
                          8       1    1dyz              2.062000      10.115218
                          8       1    1dz2              2.062000       5.840024

                          9       1    1dx2              0.662000       0.799670
                          9       1    1dxy              0.662000       1.385069
                          9       1    1dxz              0.662000       1.385069
                          9       1    1dy2              0.662000       0.799670
                          9       1    1dyz              0.662000       1.385069
                          9       1    1dz2              0.662000       0.799670

                         10       1    1fx3              1.397000       3.123535
                         10       1    1fx2y             1.397000       6.984436
                         10       1    1fx2z             1.397000       6.984436
                         10       1    1fxy2             1.397000       6.984436
                         10       1    1fxyz             1.397000      12.097399
                         10       1    1fxz2             1.397000       6.984436
                         10       1    1fy3              1.397000       3.123535
                         10       1    1fy2z             1.397000       6.984436
                         10       1    1fyz2             1.397000       6.984436
                         10       1    1fz3              1.397000       3.123535

     RI Auxiliary Basis Set                                                RI-5Z

       Number of orbital shell sets:                                          21
       Number of orbital shells:                                              21
       Number of primitive Cartesian functions:                               21
       Number of Cartesian basis functions:                                  126
       Number of spherical basis functions:                                   91
       Norm type:                                                              2

       Normalised Cartesian orbitals:

                        Set   Shell   Orbital            Exponent    Coefficient

                          1       1    1s               23.321500       7.563581

                          2       1    1s                4.922970       2.355486

                          3       1    1s                1.775100       1.096042

                          4       1    1s                0.994218       0.709613

                          5       1    1s                0.506054       0.427620

                          6       1    1s                0.236911       0.242019

                          7       1    1px               5.974580      13.314483
                          7       1    1py               5.974580      13.314483
                          7       1    1pz               5.974580      13.314483

                          8       1    1px               2.052170       3.501118
                          8       1    1py               2.052170       3.501118
                          8       1    1pz               2.052170       3.501118

                          9       1    1px               1.248660       1.881462
                          9       1    1py               1.248660       1.881462
                          9       1    1pz               1.248660       1.881462

                         10       1    1px               0.805545       1.087808
                         10       1    1py               0.805545       1.087808
                         10       1    1pz               0.805545       1.087808

                         11       1    1px               0.347892       0.380843
                         11       1    1py               0.347892       0.380843
                         11       1    1pz               0.347892       0.380843

                         12       1    1dx2              3.858160      17.481346
                         12       1    1dxy              3.858160      30.278579
                         12       1    1dxz              3.858160      30.278579
                         12       1    1dy2              3.858160      17.481346
                         12       1    1dyz              3.858160      30.278579
                         12       1    1dz2              3.858160      17.481346

                         13       1    1dx2              1.710630       4.211459
                         13       1    1dxy              1.710630       7.294461
                         13       1    1dxz              1.710630       7.294461
                         13       1    1dy2              1.710630       4.211459
                         13       1    1dyz              1.710630       7.294461
                         13       1    1dz2              1.710630       4.211459

                         14       1    1dx2              0.979237       1.586584
                         14       1    1dxy              0.979237       2.748044
                         14       1    1dxz              0.979237       2.748044
                         14       1    1dy2              0.979237       1.586584
                         14       1    1dyz              0.979237       2.748044
                         14       1    1dz2              0.979237       1.586584

                         15       1    1dx2              0.625366       0.723843
                         15       1    1dxy              0.625366       1.253733
                         15       1    1dxz              0.625366       1.253733
                         15       1    1dy2              0.625366       0.723843
                         15       1    1dyz              0.625366       1.253733
                         15       1    1dz2              0.625366       0.723843

                         16       1    1fx3              3.101510      18.792914
                         16       1    1fx2y             3.101510      42.022232
                         16       1    1fx2z             3.101510      42.022232
                         16       1    1fxy2             3.101510      42.022232
                         16       1    1fxyz             3.101510      72.784641
                         16       1    1fxz2             3.101510      42.022232
                         16       1    1fy3              3.101510      18.792914
                         16       1    1fy2z             3.101510      42.022232
                         16       1    1fyz2             3.101510      42.022232
                         16       1    1fz3              3.101510      18.792914

                         17       1    1fx3              1.198110       2.210915
                         17       1    1fx2y             1.198110       4.943756
                         17       1    1fx2z             1.198110       4.943756
                         17       1    1fxy2             1.198110       4.943756
                         17       1    1fxyz             1.198110       8.562836
                         17       1    1fxz2             1.198110       4.943756
                         17       1    1fy3              1.198110       2.210915
                         17       1    1fy2z             1.198110       4.943756
                         17       1    1fyz2             1.198110       4.943756
                         17       1    1fz3              1.198110       2.210915

                         18       1    1fx3              0.572873       0.420326
                         18       1    1fx2y             0.572873       0.939876
                         18       1    1fx2z             0.572873       0.939876
                         18       1    1fxy2             0.572873       0.939876
                         18       1    1fxyz             0.572873       1.627914
                         18       1    1fxz2             0.572873       0.939876
                         18       1    1fy3              0.572873       0.420326
                         18       1    1fy2z             0.572873       0.939876
                         18       1    1fyz2             0.572873       0.939876
                         18       1    1fz3              0.572873       0.420326

                         19       1    1gx4              2.987800      22.576266
                         19       1    1gx3y             2.987800      59.731185
                         19       1    1gx3z             2.987800      59.731185
                         19       1    1gx2y2            2.987800      77.112629
                         19       1    1gx2yz            2.987800     133.562991
                         19       1    1gx2z2            2.987800      77.112629
                         19       1    1gxy3             2.987800      59.731185
                         19       1    1gxy2z            2.987800     133.562991
                         19       1    1gxyz2            2.987800     133.562991
                         19       1    1gxz3             2.987800      59.731185
                         19       1    1gy4              2.987800      22.576266
                         19       1    1gy3z             2.987800      59.731185
                         19       1    1gy2z2            2.987800      77.112629
                         19       1    1gyz3             2.987800      59.731185
                         19       1    1gz4              2.987800      22.576266

                         20       1    1gx4              1.231920       1.974865
                         20       1    1gx3y             1.231920       5.225001
                         20       1    1gx3z             1.231920       5.225001
                         20       1    1gx2y2            1.231920       6.745447
                         20       1    1gx2yz            1.231920      11.683456
                         20       1    1gx2z2            1.231920       6.745447
                         20       1    1gxy3             1.231920       5.225001
                         20       1    1gxy2z            1.231920      11.683456
                         20       1    1gxyz2            1.231920      11.683456
                         20       1    1gxz3             1.231920       5.225001
                         20       1    1gy4              1.231920       1.974865
                         20       1    1gy3z             1.231920       5.225001
                         20       1    1gy2z2            1.231920       6.745447
                         20       1    1gyz3             1.231920       5.225001
                         20       1    1gz4              1.231920       1.974865

                         21       1    1hx5              3.247390      34.106027
                         21       1    1hx4y             3.247390     102.318080
                         21       1    1hx4z             3.247390     102.318080
                         21       1    1hx3y2            3.247390     156.293448
                         21       1    1hx3yz            3.247390     270.708193
                         21       1    1hx3z2            3.247390     156.293448
                         21       1    1hx2y3            3.247390     156.293448
                         21       1    1hx2y2z           3.247390     349.482775
                         21       1    1hx2yz2           3.247390     349.482775
                         21       1    1hx2z3            3.247390     156.293448
                         21       1    1hxy4             3.247390     102.318080
                         21       1    1hxy3z            3.247390     270.708193
                         21       1    1hxy2z2           3.247390     349.482775
                         21       1    1hxyz3            3.247390     270.708193
                         21       1    1hxz4             3.247390     102.318080
                         21       1    1hy5              3.247390      34.106027
                         21       1    1hy4z             3.247390     102.318080
                         21       1    1hy3z2            3.247390     156.293448
                         21       1    1hy2z3            3.247390     156.293448
                         21       1    1hyz4             3.247390     102.318080
                         21       1    1hz5              3.247390      34.106027

     The atoms of this atomic kind are PAW atoms (GAPW):
       Hard Gaussian function radius:                                      1.200
       Rho0 radius:                                                        1.200
       Maximum GTO radius used for PAW projector construction:            24.566

     GAPW Soft Basis Set                                          def2-QZVP_soft

       Number of orbital shell sets:                                          10
       Number of orbital shells:                                              10
       Number of primitive Cartesian functions:                               10
       Number of Cartesian basis functions:                                   35
       Number of spherical basis functions:                                   30
       Norm type:                                                              2

       Normalised Cartesian orbitals:

                        Set   Shell   Orbital            Exponent    Coefficient

                          1       1    1s                1.841246       0.914889

                          2       1    1s                0.598537       0.484985

                          3       1    1s                0.213976       0.224225

                          4       1    1s                0.080316       0.107526

                          5       1    1px               2.292000       4.019836
                          5       1    1py               2.292000       4.019836
                          5       1    1pz               2.292000       4.019836

                          6       1    1px               0.838000       1.142865
                          6       1    1py               0.838000       1.142865
                          6       1    1pz               0.838000       1.142865

                          7       1    1px               0.292000       0.305963
                          7       1    1py               0.292000       0.305963
                          7       1    1pz               0.292000       0.305963

                          8       1    1dx2              2.062000       5.840024
                          8       1    1dxy              2.062000      10.115218
                          8       1    1dxz              2.062000      10.115218
                          8       1    1dy2              2.062000       5.840024
                          8       1    1dyz              2.062000      10.115218
                          8       1    1dz2              2.062000       5.840024

                          9       1    1dx2              0.662000       0.799670
                          9       1    1dxy              0.662000       1.385069
                          9       1    1dxz              0.662000       1.385069
                          9       1    1dy2              0.662000       0.799670
                          9       1    1dyz              0.662000       1.385069
                          9       1    1dz2              0.662000       0.799670

                         10       1    1fx3              1.397000       3.123535
                         10       1    1fx2y             1.397000       6.984436
                         10       1    1fx2z             1.397000       6.984436
                         10       1    1fxy2             1.397000       6.984436
                         10       1    1fxyz             1.397000      12.097399
                         10       1    1fxz2             1.397000       6.984436
                         10       1    1fy3              1.397000       3.123535
                         10       1    1fy2z             1.397000       6.984436
                         10       1    1fyz2             1.397000       6.984436
                         10       1    1fz3              1.397000       3.123535

     AE Potential information for                                            ALL

       Description:                                       All-electron potential
                                          Krack, Parrinello, PCCP 2, 2105 (2000)

       Gaussian exponent of the core charge distribution:              12.500000
       Electronic configuration (s p d ...):                           1   0   0

  3. Atomic kind: N                                     Number of atoms:       1

     Orbital Basis Set                                                 def2-QZVP

       Number of orbital shell sets:                                          17
       Number of orbital shells:                                              17
       Number of primitive Cartesian functions:                               29
       Number of Cartesian basis functions:                                   72
       Number of spherical basis functions:                                   57
       Norm type:                                                              2

       Normalised Cartesian orbitals:

                        Set   Shell   Orbital            Exponent    Coefficient

                          1       1    1s            90726.889210       0.264461
                                                     13590.528801       0.494937
                                                      3092.988378       0.855170
                                                       875.998764       1.389874
                                                       285.744700       2.121698
                                                       103.119134       2.979703
                                                        40.128557       3.622800
                                                        16.528096       3.451840

                          2       1    1s               69.390961       1.621997
                                                        20.428201       6.338076

                          3       1    1s                7.129259       3.109520

                          4       1    1s                3.132430       1.678113

                          5       1    1s                0.987558       0.706044

                          6       1    1s                0.387657       0.350143

                          7       1    1s                0.149099       0.171008

                          8       1    1px             150.057427      -1.834160
                                                        35.491599      -2.406167
                                                        11.247864      -2.652970
                                                         4.090031      -2.482665
                                                         1.622057      -1.818128
                          8       1    1py             150.057427      -1.834160
                                                        35.491599      -2.406167
                                                        11.247864      -2.652970
                                                         4.090031      -2.482665
                                                         1.622057      -1.818128
                          8       1    1pz             150.057427      -1.834160
                                                        35.491599      -2.406167
                                                        11.247864      -2.652970
                                                         4.090031      -2.482665
                                                         1.622057      -1.818128

                          9       1    1px               0.664423       0.855058
                          9       1    1py               0.664423       0.855058
                          9       1    1pz               0.664423       0.855058

                         10       1    1px               0.270998       0.278706
                         10       1    1py               0.270998       0.278706
                         10       1    1pz               0.270998       0.278706

                         11       1    1px               0.106887       0.087116
                         11       1    1py               0.106887       0.087116
                         11       1    1pz               0.106887       0.087116

                         12       1    1dx2              2.837000      10.207357
                         12       1    1dxy              2.837000      17.679661
                         12       1    1dxz              2.837000      17.679661
                         12       1    1dy2              2.837000      10.207357
                         12       1    1dyz              2.837000      17.679661
                         12       1    1dz2              2.837000      10.207357

                         13       1    1dx2              0.968000       1.554860
                         13       1    1dxy              0.968000       2.693097
                         13       1    1dxz              0.968000       2.693097
                         13       1    1dy2              0.968000       1.554860
                         13       1    1dyz              0.968000       2.693097
                         13       1    1dz2              0.968000       1.554860

                         14       1    1dx2              0.335000       0.242794
                         14       1    1dxy              0.335000       0.420531
                         14       1    1dxz              0.335000       0.420531
                         14       1    1dy2              0.335000       0.242794
                         14       1    1dyz              0.335000       0.420531
                         14       1    1dz2              0.335000       0.242794

                         15       1    1fx3              2.027000       7.217310
                         15       1    1fx2y             2.027000      16.138397
                         15       1    1fx2z             2.027000      16.138397
                         15       1    1fxy2             2.027000      16.138397
                         15       1    1fxyz             2.027000      27.952523
                         15       1    1fxz2             2.027000      16.138397
                         15       1    1fy3              2.027000       7.217310
                         15       1    1fy2z             2.027000      16.138397
                         15       1    1fyz2             2.027000      16.138397
                         15       1    1fz3              2.027000       7.217310

                         16       1    1fx3              0.685000       0.628432
                         16       1    1fx2y             0.685000       1.405216
                         16       1    1fx2z             0.685000       1.405216
                         16       1    1fxy2             0.685000       1.405216
                         16       1    1fxyz             0.685000       2.433906
                         16       1    1fxz2             0.685000       1.405216
                         16       1    1fy3              0.685000       0.628432
                         16       1    1fy2z             0.685000       1.405216
                         16       1    1fyz2             0.685000       1.405216
                         16       1    1fz3              0.685000       0.628432

                         17       1    1gx4              1.427000       2.958703
                         17       1    1gx3y             1.427000       7.827992
                         17       1    1gx3z             1.427000       7.827992
                         17       1    1gx2y2            1.427000      10.105894
[...]
 flops    57 x    30 x     7               311220     100.0%      0.0%      0.0%
 flops    30 x    57 x    57               389880     100.0%      0.0%      0.0%
 flops    57 x    57 x    30               389880     100.0%      0.0%      0.0%
 flops   144 x   114 x    30               984960     100.0%      0.0%      0.0%
 flops   144 x    30 x    57               984960     100.0%      0.0%      0.0%
 flops    57 x    57 x    57              1481544     100.0%      0.0%      0.0%
 flops    57 x    57 x     7              1773954     100.0%      0.0%      0.0%
 flops   144 x   114 x    57              3742848     100.0%      0.0%      0.0%
 flops    91 x    91 x    91             21099988     100.0%      0.0%      0.0%
 flops    30 x   330 x    30             49896000     100.0%      0.0%      0.0%
 flops    91 x   193 x    91             89501048     100.0%      0.0%      0.0%
 flops    91 x    91 x   193             89501048     100.0%      0.0%      0.0%
 flops   193 x    91 x    91             89501048     100.0%      0.0%      0.0%
 flops    30 x   627 x    30            189604800     100.0%      0.0%      0.0%
 flops    30 x   330 x    57            189604800     100.0%      0.0%      0.0%
 flops    57 x   330 x    30            192990600     100.0%      0.0%      0.0%
 flops    91 x   193 x   193            379641808     100.0%      0.0%      0.0%
 flops   193 x   193 x    91            379641808     100.0%      0.0%      0.0%
 flops   193 x    91 x   193            379641808     100.0%      0.0%      0.0%
 flops   477 x    30 x    30            408693600     100.0%      0.0%      0.0%
 flops   477 x    30 x    91            619851960     100.0%      0.0%      0.0%
 flops    30 x   360 x    30            671328000     100.0%      0.0%      0.0%
 flops    30 x   627 x    57            720498240     100.0%      0.0%      0.0%
 flops    57 x   627 x    30            733364280     100.0%      0.0%      0.0%
 flops    57 x   330 x    57            733364280     100.0%      0.0%      0.0%
 flops    91 x    91 x   504            934891776     100.0%      0.0%      0.0%
 flops   477 x   114 x    30           1553035680     100.0%      0.0%      0.0%
 flops   477 x    30 x    57           1553035680     100.0%      0.0%      0.0%
 flops   193 x   193 x   193           1610348768     100.0%      0.0%      0.0%
 flops   477 x   114 x    91           2355437448     100.0%      0.0%      0.0%
 flops    30 x   684 x    30           2551046400     100.0%      0.0%      0.0%
 flops    30 x   360 x    57           2551046400     100.0%      0.0%      0.0%
 flops    57 x   360 x    30           2596600800     100.0%      0.0%      0.0%
 flops   477 x    30 x   193           2629262160     100.0%      0.0%      0.0%
 flops    57 x   627 x    57           2786784264     100.0%      0.0%      0.0%
 flops    91 x    91 x   522           3873123072     100.0%      0.0%      0.0%
 flops    91 x   193 x   504           3965584896     100.0%      0.0%      0.0%
 flops   193 x    91 x   504           3965584896     100.0%      0.0%      0.0%
 flops   477 x   114 x    57           5901535584     100.0%      0.0%      0.0%
 flops    30 x   684 x    57           9693976320     100.0%      0.0%      0.0%
 flops    57 x   684 x    30           9867083040     100.0%      0.0%      0.0%
 flops    57 x   360 x    57           9867083040     100.0%      0.0%      0.0%
 flops   477 x   114 x   193           9991196208     100.0%      0.0%      0.0%
 flops    91 x   193 x   522          16428851712     100.0%      0.0%      0.0%
 flops   193 x    91 x   522          16428851712     100.0%      0.0%      0.0%
 flops   193 x   193 x   504          16821052416     100.0%      0.0%      0.0%
 flops    57 x   684 x    57          37494915552     100.0%      0.0%      0.0%
 flops   193 x   193 x   522          69687217152     100.0%      0.0%      0.0%
 flops inhomo. stacks                           0       0.0%      0.0%      0.0%
 flops total                       241.056166E+09     100.0%      0.0%      0.0%
 flops max/rank                     27.630027E+09     100.0%      0.0%      0.0%
 matmuls inhomo. stacks                         0       0.0%      0.0%      0.0%
 matmuls total                              40395     100.0%      0.0%      0.0%
 number of processed stacks                 15876     100.0%      0.0%      0.0%
 average stack size                                     2.5       0.0       0.0
 marketing flops                   242.774147E+09
 -------------------------------------------------------------------------------
 # multiplications                            786
 max memory usage/rank             496.386048E+06
 # max total images/rank                        5
 # max 3D layers                                1
 # MPI messages exchanged                  980760
 MPI messages size (bytes):
  total size                         7.193063E+09
  min size                           0.000000E+00
  max size                         736.488000E+03
  average size                       7.334173E+03
 MPI breakdown and total messages size (bytes):
             size <=      128              947724                        0
       128 < size <=     8192                1626                 11561184
      8192 < size <=    32768                5016                 94095072
     32768 < size <=   131072                9384                770380176
    131072 < size <=  4194304               17010               6316947168
   4194304 < size <= 16777216                   0                        0
  16777216 < size                               0                        0
 -------------------------------------------------------------------------------

 *** WARNING in dbcsr_mm.F:278 :: Using a non-square number of MPI ranks ***
 *** might lead to poor performance. Used ranks: 40 Suggested: 36 81     ***

 -------------------------------------------------------------------------------
 -                                                                             -
 -                      DBCSR MESSAGE PASSING PERFORMANCE                      -
 -                                                                             -
 -------------------------------------------------------------------------------

 ROUTINE             CALLS      AVE VOLUME [Bytes]
 MP_Group               49
 MP_Bcast               53                     12.
 MP_Allreduce         4540                      9.
 MP_Alltoall          2710                  66289.
 MP_Wait             54528
 MP_ISend            53724                  22414.
 MP_IRecv            53670                   8171.
 MP_Memory           82692
 -------------------------------------------------------------------------------


 MEMORY| Estimated peak process memory [MiB]                                 473

 -------------------------------------------------------------------------------
 ----                             MULTIGRID INFO                            ----
 -------------------------------------------------------------------------------
 count for grid        1:         646469          cutoff [a.u.]          200.00
 count for grid        2:         130755          cutoff [a.u.]           66.67
 count for grid        3:          49306          cutoff [a.u.]           22.22
 count for grid        4:           8343          cutoff [a.u.]            7.41
 total gridlevel count  :         834873

 -------------------------------------------------------------------------------
 -                                                                             -
 -                         MESSAGE PASSING PERFORMANCE                         -
 -                                                                             -
 -------------------------------------------------------------------------------

 ROUTINE             CALLS      AVE VOLUME [Bytes]
 MP_Group                5
 MP_Bcast              339                2559571.
 MP_Allreduce          661                  72927.
 MP_Sync                84
 MP_Alltoall           363                6131318.
 MP_ISendRecv         2340                  47770.
 MP_Wait              6768
 MP_comm_split          22
 MP_ISend             8538                 116692.
 MP_IRecv             7478                 224186.
 MP_Recv                 6                   1152.
 -------------------------------------------------------------------------------


 -------------------------------------------------------------------------------
 -                                                                             -
 -                           R E F E R E N C E S                               -
 -                                                                             -
 -------------------------------------------------------------------------------
 
 CP2K version 7.0 (Development Version), the CP2K developers group (2018).
 CP2K is freely available from https://www.cp2k.org/ .

 Schuett, Ole; Messmer, Peter; Hutter, Juerg; VandeVondele, Joost. 
 Electronic Structure Calculations on Graphics Processing Units, John Wiley & Sons, Ltd, 173-190 (2016). 
 GPU-Accelerated Sparse Matrix-Matrix Multiplication for Linear Scaling Density Functional Theory.
 https://dx.doi.org/10.1002/9781118670712.ch8


 Del Ben, M; Schuett, O; Wentz, T; Messmer, P; Hutter, J;
 VandeVondele, J. 
 COMPUTER PHYSICS COMMUNICATIONS, 187, 120-129 (2015). 
 Enabling simulation at the fifth rung of DFT: Large scale RPA
 calculations with excellent time to solution.
 https://dx.doi.org/10.1016/j.cpc.2014.10.021


 Borstnik, U; VandeVondele, J; Weber, V; Hutter, J. 
 PARALLEL COMPUTING, 40 (5-6), 47-58 (2014). 
 Sparse matrix multiplication: The distributed block-compressed sparse
 row library.
 https://dx.doi.org/10.1016/j.parco.2014.03.012


 Hutter, J; Iannuzzi, M; Schiffmann, F; VandeVondele, J. 
 WILEY INTERDISCIPLINARY REVIEWS-COMPUTATIONAL MOLECULAR SCIENCE, 4 (1), 15-25 (2014). 
 CP2K: atomistic simulations of condensed matter systems.
 https://dx.doi.org/10.1002/wcms.1159


 Del Ben, M; Hutter, J; VandeVondele, J. 
 JOURNAL OF CHEMICAL THEORY AND COMPUTATION, 9 (6), 2654-2671 (2013). 
 Electron Correlation in the Condensed Phase from a Resolution of
 Identity Approach Based on the Gaussian and Plane Waves Scheme.
 https://dx.doi.org/10.1021/ct4002202


 Del Ben, M; Hutter, J; VandeVondele, J. 
 JOURNAL OF CHEMICAL THEORY AND COMPUTATION, 8 (11), 4177-4188 (2012). 
 Second-Order Moller-Plesset Perturbation Theory in the Condensed Phase:
 An Efficient and Massively Parallel Gaussian and Plane Waves Approach.
 https://dx.doi.org/10.1021/ct300531w


 Guidon, M; Hutter, J; VandeVondele, J. 
 JOURNAL OF CHEMICAL THEORY AND COMPUTATION, 5 (11), 3010-3021 (2009). 
 Robust Periodic Hartree-Fock Exchange for Large-Scale Simulations Using
 Gaussian Basis Sets.
 https://dx.doi.org/10.1021/ct900494g


 Guidon, M; Schiffmann, F; Hutter, J; VandeVondele, J. 
 JOURNAL OF CHEMICAL PHYSICS, 128 (21), 214104 (2008). 
 Ab initio molecular dynamics using hybrid density functionals.
 https://dx.doi.org/10.1063/1.2931945


 Frigo, M; Johnson, SG. 
 PROCEEDINGS OF THE IEEE, 93 (2), 216-231 (2005). 
 The design and implementation of FFTW3.
 https://dx.doi.org/10.1109/JPROC.2004.840301


 Lippert, G; Hutter, J; Parrinello, M. 
 THEORETICAL CHEMISTRY ACCOUNTS, 103 (2), 124-140 (1999). 
 The Gaussian and augmented-plane-wave density functional method for ab
 initio molecular dynamics simulations.
 https://dx.doi.org/10.1007/s002140050523


 Krack, M; Parrinello, M. 
 PHYSICAL CHEMISTRY CHEMICAL PHYSICS, 2 (10), 2105-2112 (2000). 
 All-electron ab-initio molecular dynamics.
 https://dx.doi.org/10.1039/b001167n


 Martyna, GJ; Tuckerman, ME. 
 JOURNAL OF CHEMICAL PHYSICS, 110 (6), 2810-2821 (1999). 
 A reciprocal space based method for treating long range interactions in
 ab initio and force-field-based calculations in clusters.
 https://dx.doi.org/10.1063/1.477923


 Perdew, JP; Burke, K; Ernzerhof, M. 
 PHYSICAL REVIEW LETTERS, 77 (18), 3865-3868 (1996). 
 Generalized gradient approximation made simple.
 https://dx.doi.org/10.1103/PhysRevLett.77.3865


 -------------------------------------------------------------------------------
 -                                                                             -
 -                                T I M I N G                                  -
 -                                                                             -
 -------------------------------------------------------------------------------
 SUBROUTINE                       CALLS  ASD         SELF TIME        TOTAL TIME
                                MAXIMUM       AVERAGE  MAXIMUM  AVERAGE  MAXIMUM
 CP2K                                 1  1.0    0.015    0.022   81.125   81.126
 qs_energies                          1  2.0    0.000    0.000   79.611   79.612
 mp2_main                             1  3.0    0.000    0.001   51.749   51.759
 compute_vec_Sigma_x_minus_vxc_       1  4.0    0.000    0.000   29.322   29.322
 integrate_four_center                1  5.0    0.004    0.008   28.435   28.439
 scf_env_do_scf                       1  3.0    0.000    0.000   27.159   27.159
 scf_env_do_scf_inner_loop           13  4.0    0.002    0.004   27.159   27.159
 qs_ks_build_kohn_sham_matrix        14  6.9    0.003    0.004   23.656   23.680
 qs_ks_update_qs_env                 13  5.0    0.000    0.000   22.779   22.801
 rebuild_ks_matrix                   13  6.0    0.000    0.000   22.778   22.800
 mp2_gpw_main                         1  4.0    0.001    0.004   22.410   22.411
 calc_screening_functions             1  6.0   11.213   12.252   16.827   18.554
 rpa_ri_compute_en                    1  5.0    0.000    0.000   17.417   17.418
 rpa_num_int                          1  6.0    0.001    0.002   17.414   17.415
 pw_transfer                        291  9.5    0.028    0.031   11.149   11.630
 fft_wrap_pw1pw2                    247 10.6    0.004    0.004   10.953   11.434
 fft_wrap_pw1pw2_200                162 11.7    0.729    0.885   10.263   10.736
 powell_optimize                2087135  7.0    8.986   10.230    8.986   10.230
 dbcsr_multiply_generic             786  9.9    0.044    0.055    8.127    9.719
 fft3d_ps                           247 12.6    3.616    4.164    8.113    9.037
 multiply_cannon                    786 10.9    0.136    0.166    5.655    8.148
 mp_sum_d                          1105  6.4    5.862    8.036    5.862    8.036
 GW_postprocessing                    1  7.0    0.000    0.000    7.600    7.602
 compute_self_energy_im_time_gw       1  8.0    0.002    0.003    7.600    7.600
 rs_pw_transfer                     142  9.4    0.004    0.004    7.165    7.547
 qs_vxc_create                       14  7.9    0.000    0.001    7.339    7.340
 xc_vxc_pw_create                    13  9.0    0.080    0.099    7.339    7.339
 calc_pair_dist_radii                 1  6.0    3.086    3.635    6.459    7.225
 mp_waitall_1                     57316 13.3    3.402    6.030    3.402    6.030
 mp_sum_l                          3892 10.8    3.186    5.941    3.186    5.941
 multiply_cannon_multrec          14903 11.9    1.349    5.900    1.729    5.935
 multiply_cannon_metrocomm3       14903 11.9    0.021    0.024    2.224    5.600
 mp_alltoall_z22v                   247 14.6    3.474    5.107    3.474    5.107
 mp2_ri_gpw_compute_in                1  5.0    0.000    0.000    4.192    4.979
 prepare_gapw_den                    14  7.9    0.001    0.001    4.915    4.961
 multiply_cannon_metrocomm1       14903 11.9    0.010    0.012    0.757    4.938
 compute_3c_overlap_int               1  6.0    1.241    1.559    3.825    4.611
 mp_waitany                        3896 11.4    3.297    4.606    3.297    4.606
 qs_rho_update_rho                   14  5.0    0.000    0.000    4.482    4.483
 calculate_rho_elec                  14  6.0    0.111    0.861    4.413    4.414
 compute_self_energy_im_time_gw     238  9.0    0.001    0.001    3.159    4.143
 density_rs2pw                       14  7.0    0.001    0.001    3.923    4.090
 sum_up_and_integrate                14  7.9    0.034    0.051    3.625    4.064
 integrate_v_rspace                  14  8.9    0.058    0.490    3.591    4.037
 compute_mat_P_omega                  1  7.0    0.000    0.000    4.004    4.005
 calculate_vxc_atom                  14  7.9    0.024    0.659    3.933    3.944
 integrate_four_center_load           1  6.0    0.000    0.001    2.146    3.828
 hfx_load_balance                     1  7.0    0.000    0.000    2.146    3.828
 xc_rho_set_and_dset_create          13 10.0    0.052    0.060    3.345    3.818
 hfx_load_balance_range               1  8.0    0.001    0.017    2.054    3.736
 mp_sync                             84  8.7    2.865    3.592    2.865    3.592
 potential_pw2rs                     14  9.9    0.002    0.002    3.462    3.473
 yz_to_x                            124 13.2    0.399    0.521    2.345    3.233
 dbcsr_trace_a_b_d                  504  9.9    0.003    0.051    1.448    3.215
 compute_self_energy_im_time_gw     238  9.0    0.001    0.002    1.417    3.188
 rpa_num_int_im_t_alloc_mat_gw        1  7.0    0.000    0.000    0.133    3.175
 allocate_matrices_gw_im_time         1  8.0    0.000    0.000    0.133    3.175
 get_mat_3c_overl_int_gw              1  9.0    0.001    0.001    0.132    3.174
 fill_mat_3c_overl_int_gw             1 10.0    0.000    0.000    0.115    3.159
 gaVxcgb_GC                          39  9.0    0.079    3.157    0.079    3.157
 rs_pw_transfer_PW2RS_200            29 10.8    1.318    1.581    2.813    3.148
 rpa_num_int_im_t_alloc_mat_24        1  7.0    0.000    0.000    3.044    3.144
 cp_fm_copy_general                   2  8.0    0.000    0.000    3.044    3.144
 cp_fm_start_copy_general             2  9.0    0.001    0.001    3.044    3.144
 mp_allgather_i                       4 10.0    3.043    3.143    3.043    3.143
 GW3c_fill_mat                        1 11.0    0.046    1.523    0.095    3.134
 integrate_four_center_main           1  6.0    0.000    0.000    0.592    2.985
 integrate_four_center_bin          127  7.0    0.592    2.985    0.592    2.985
 rs_pw_transfer_RS2PW_200            29  9.9    1.213    1.590    2.718    2.959
 compute_3c_overlap_int_put_dbc   23232  7.0    2.425    2.892    2.425    2.892
 x_to_yz                            123 14.1    0.614    0.727    2.142    2.767
 put_rho0_on_grid                    14  8.9    0.014    0.025    2.433    2.480
 compute_mat_P_omega_calc_P          14  8.0    0.000    0.000    2.078    2.385
 mp_sum_dv                           64  8.4    1.957    2.338    1.957    2.338
 calculate_rho_atom                  42  8.9    0.663    2.338    0.663    2.338
 integrate_vhg0_rspace               14  7.9    0.110    0.154    1.951    2.083
 mp_sum_dm                          132  7.6    1.176    1.824    1.176    1.824
 compute_self_energy_im_time_gw     238  9.0    0.001    0.001    1.254    1.719
 make_m2s                          1572 10.9    0.035    0.039    1.245    1.717
 compute_self_energy_im_time_gw     238  9.0    0.001    0.002    1.694    1.705
 mp_comm_split_direct                 8  6.6    0.991    1.657    0.991    1.657
 -------------------------------------------------------------------------------

 The number of warnings for this run is : 3
 
 -------------------------------------------------------------------------------
  **** **** ******  **  PROGRAM ENDED AT                 2019-05-31 18:05:39.629
 ***** ** ***  *** **   PROGRAM RAN ON                                    tcopt4
 **    ****   ******    PROGRAM RAN BY                                   wilhelm
 ***** **    ** ** **   PROGRAM PROCESS ID                                 87818
  **** **  *******  **  PROGRAM STOPPED IN /data/wilhelm/2_job_test/11_GW100/3_c
                                           alcs/66_NCH
