 DBCSR| CPU Multiplication driver                                           BLAS
 DBCSR| Multrec recursion limit                                              512
 DBCSR| Multiplication stack size                                           1000
 DBCSR| Maximum elements for images                                    UNLIMITED
 DBCSR| Multiplicative factor virtual images                                   1
 DBCSR| Use multiplication densification                                       T
 DBCSR| Multiplication size stacks                                             3
 DBCSR| Number of 3D layers                                               SINGLE
 DBCSR| Use MPI memory allocation                                              T
 DBCSR| Use RMA algorithm                                                      F
 DBCSR| Use Communication thread                                               T
 DBCSR| Communication thread load                                             87


  **** **** ******  **  PROGRAM STARTED AT               2019-05-31 17:03:26.436
 ***** ** ***  *** **   PROGRAM STARTED ON                                tcopt4
 **    ****   ******    PROGRAM STARTED BY                               wilhelm
 ***** **    ** ** **   PROGRAM PROCESS ID                                 80891
  **** **  *******  **  PROGRAM STARTED IN /data/wilhelm/2_job_test/11_GW100/3_c
                                           alcs/48_HN3

 CP2K| version string:                    CP2K version 7.0 (Development Version)
 CP2K| source code revision number:                                  git:026fb12
 CP2K| cp2kflags: libint fftw3 libxc pexsi elpa=201705 parallel mpi3 scalapack q
 CP2K|            uip libderiv_max_am1=5 libint_max_am=6
 CP2K| is freely available from                            https://www.cp2k.org/
 CP2K| Program compiled at                         Sat May 11 13:15:02 CEST 2019
 CP2K| Program compiled on                                                tcopt4
 CP2K| Program compiled for                            local_valgrind_March_2019
 CP2K| Data directory path              /data/wilhelm/1_git_repository/cp2k/data
 CP2K| Input file name                                                    GW.inp

 GLOBAL| Force Environment number                                              1
 GLOBAL| Basis set file name                              BASIS_def2_QZVP_RI_ALL
 GLOBAL| Potential file name                                           POTENTIAL
 GLOBAL| MM Potential file name                                     MM_POTENTIAL
 GLOBAL| Coordinate file name                                         48_HN3.xyz
 GLOBAL| Method name                                                        CP2K
 GLOBAL| Project name                                                   ALL_ELEC
 GLOBAL| Preferred FFT library                                             FFTW3
 GLOBAL| Preferred diagonalization lib.                                       SL
 GLOBAL| Run type                                                         ENERGY
 GLOBAL| All-to-all communication in single precision                          F
 GLOBAL| FFTs using library dependent lengths                                  F
 GLOBAL| Global print level                                               MEDIUM
 GLOBAL| MPI I/O enabled                                                       T
 GLOBAL| Total number of message passing processes                            40
 GLOBAL| Number of threads for this process                                    1
 GLOBAL| This output is from process                                           0
 GLOBAL| CPU model name :  Intel(R) Xeon(R) CPU E5-2697 v3 @ 2.60GHz

 MEMORY| system memory details [Kb]
 MEMORY|                        rank 0           min           max       average
 MEMORY| MemTotal            396954008     396954008     396954008     396954008
 MEMORY| MemFree             376734384     376734384     376734384     376734384
 MEMORY| Buffers                335332        335332        335332        335332
 MEMORY| Cached               15987364      15987364      15987364      15987364
 MEMORY| Slab                   601956        601956        601956        601956
 MEMORY| SReclaimable           461804        461804        461804        461804
 MEMORY| MemLikelyFree       393518884     393518884     393518884     393518884


 *** Fundamental physical constants (SI units) ***

 *** Literature: B. J. Mohr and B. N. Taylor,
 ***             CODATA recommended values of the fundamental physical
 ***             constants: 2006, Web Version 5.1
 ***             http://physics.nist.gov/constants

 Speed of light in vacuum [m/s]                             2.99792458000000E+08
 Magnetic constant or permeability of vacuum [N/A**2]       1.25663706143592E-06
 Electric constant or permittivity of vacuum [F/m]          8.85418781762039E-12
 Planck constant (h) [J*s]                                  6.62606896000000E-34
 Planck constant (h-bar) [J*s]                              1.05457162825177E-34
 Elementary charge [C]                                      1.60217648700000E-19
 Electron mass [kg]                                         9.10938215000000E-31
 Electron g factor [ ]                                     -2.00231930436220E+00
 Proton mass [kg]                                           1.67262163700000E-27
 Fine-structure constant                                    7.29735253760000E-03
 Rydberg constant [1/m]                                     1.09737315685270E+07
 Avogadro constant [1/mol]                                  6.02214179000000E+23
 Boltzmann constant [J/K]                                   1.38065040000000E-23
 Atomic mass unit [kg]                                      1.66053878200000E-27
 Bohr radius [m]                                            5.29177208590000E-11

 *** Conversion factors ***

 [u] -> [a.u.]                                              1.82288848426455E+03
 [Angstrom] -> [Bohr] = [a.u.]                              1.88972613288564E+00
 [a.u.] = [Bohr] -> [Angstrom]                              5.29177208590000E-01
 [a.u.] -> [s]                                              2.41888432650478E-17
 [a.u.] -> [fs]                                             2.41888432650478E-02
 [a.u.] -> [J]                                              4.35974393937059E-18
 [a.u.] -> [N]                                              8.23872205491840E-08
 [a.u.] -> [K]                                              3.15774647902944E+05
 [a.u.] -> [kJ/mol]                                         2.62549961709828E+03
 [a.u.] -> [kcal/mol]                                       6.27509468713739E+02
 [a.u.] -> [Pa]                                             2.94210107994716E+13
 [a.u.] -> [bar]                                            2.94210107994716E+08
 [a.u.] -> [atm]                                            2.90362800883016E+08
 [a.u.] -> [eV]                                             2.72113838565563E+01
 [a.u.] -> [Hz]                                             6.57968392072181E+15
 [a.u.] -> [1/cm] (wave numbers)                            2.19474631370540E+05
 [a.u./Bohr**2] -> [1/cm]                                   5.14048714338585E+03
 

 CELL_TOP| Volume [angstrom^3]:                                         4096.000
 CELL_TOP| Vector a [angstrom    16.000     0.000     0.000    |a| =      16.000
 CELL_TOP| Vector b [angstrom     0.000    16.000     0.000    |b| =      16.000
 CELL_TOP| Vector c [angstrom     0.000     0.000    16.000    |c| =      16.000
 CELL_TOP| Angle (b,c), alpha [degree]:                                   90.000
 CELL_TOP| Angle (a,c), beta  [degree]:                                   90.000
 CELL_TOP| Angle (a,b), gamma [degree]:                                   90.000
 CELL_TOP| Numerically orthorhombic:                                         YES

 GENERATE|  Preliminary Number of Bonds generated:                             0
 GENERATE|  Achieved consistency in connectivity generation.

 CELL| Volume [angstrom^3]:                                             4096.000
 CELL| Vector a [angstrom]:      16.000     0.000     0.000    |a| =      16.000
 CELL| Vector b [angstrom]:       0.000    16.000     0.000    |b| =      16.000
 CELL| Vector c [angstrom]:       0.000     0.000    16.000    |c| =      16.000
 CELL| Angle (b,c), alpha [degree]:                                       90.000
 CELL| Angle (a,c), beta  [degree]:                                       90.000
 CELL| Angle (a,b), gamma [degree]:                                       90.000
 CELL| Numerically orthorhombic:                                             YES

 CELL_REF| Volume [angstrom^3]:                                         4096.000
 CELL_REF| Vector a [angstrom    16.000     0.000     0.000    |a| =      16.000
 CELL_REF| Vector b [angstrom     0.000    16.000     0.000    |b| =      16.000
 CELL_REF| Vector c [angstrom     0.000     0.000    16.000    |c| =      16.000
 CELL_REF| Angle (b,c), alpha [degree]:                                   90.000
 CELL_REF| Angle (a,c), beta  [degree]:                                   90.000
 CELL_REF| Angle (a,b), gamma [degree]:                                   90.000
 CELL_REF| Numerically orthorhombic:                                         YES

 *******************************************************************************
 *******************************************************************************
 **                                                                           **
 **     #####                         ##              ##                      **
 **    ##   ##            ##          ##              ##                      **
 **   ##     ##                       ##            ######                    **
 **   ##     ##  ##   ##  ##   #####  ##  ##   ####   ##    #####    #####    **
 **   ##     ##  ##   ##  ##  ##      ## ##   ##      ##   ##   ##  ##   ##   **
 **   ##  ## ##  ##   ##  ##  ##      ####     ###    ##   ######   ######    **
 **    ##  ###   ##   ##  ##  ##      ## ##      ##   ##   ##       ##        **
 **     #######   #####   ##   #####  ##  ##  ####    ##    #####   ##        **
 **           ##                                                    ##        **
 **                                                                           **
 **                                                ... make the atoms dance   **
 **                                                                           **
 **            Copyright (C) by CP2K developers group (2000 - 2019)           **
 **                                                                           **
 *******************************************************************************

 DFT| Spin restricted Kohn-Sham (RKS) calculation                            RKS
 DFT| Multiplicity                                                             1
 DFT| Number of spin states                                                    1
 DFT| Charge                                                                   0
 DFT| Self-interaction correction (SIC)                                       NO
 DFT| Cutoffs: density                                              1.000000E-10
 DFT|          gradient                                             1.000000E-10
 DFT|          tau                                                  1.000000E-10
 DFT|          cutoff_smoothing_range                               0.000000E+00
 DFT| XC density smoothing                                                  NONE
 DFT| XC derivatives                                                          PW
 FUNCTIONAL| ROUTINE=NEW
 FUNCTIONAL| PBE:
 FUNCTIONAL| J.P.Perdew, K.Burke, M.Ernzerhof, Phys. Rev. Letter, vol. 77, n 18,
 FUNCTIONAL|  pp. 3865-3868, (1996){spin unpolarized}                           

 QS| Method:                                                                GAPW
 QS| Density plane wave grid type                        NON-SPHERICAL FULLSPACE
 QS| Number of grid levels:                                                    4
 QS| Density cutoff [a.u.]:                                                200.0
 QS| Multi grid cutoff [a.u.]: 1) grid level                               200.0
 QS|                           2) grid level                                66.7
 QS|                           3) grid level                                22.2
 QS|                           4) grid level                                 7.4
 QS| Grid level progression factor:                                          3.0
 QS| Relative density cutoff [a.u.]:                                        25.0
 QS| Consistent realspace mapping and integration 
 QS| Interaction thresholds: eps_pgf_orb:                                1.0E-05
 QS|                         eps_filter_matrix:                          0.0E+00
 QS|                         eps_core_charge:                            1.0E-12
 QS|                         eps_rho_gspace:                             1.0E-10
 QS|                         eps_rho_rspace:                             1.0E-10
 QS|                         eps_gvg_rspace:                             1.0E-05
 QS|                         eps_ppl:                                    1.0E-02
 QS|                         eps_ppnl:                                   1.0E-07
 QS| GAPW|                   eps_fit:                                    1.0E-04
 QS| GAPW|                   eps_iso:                                    1.0E-12
 QS| GAPW|                   eps_svd:                                    1.0E-08
 QS| GAPW|                   eps_cpc:                                    1.0E-10
 QS| GAPW|   atom-r-grid: quadrature:                 GC_LOG                        
 QS| GAPW|      atom-s-grid:  max l :                                          8
 QS| GAPW|      max_l_rho0 :                                                   2


 ATOMIC KIND INFORMATION

  1. Atomic kind: H                                     Number of atoms:       1

     Orbital Basis Set                                                 def2-QZVP

       Number of orbital shell sets:                                          10
       Number of orbital shells:                                              10
       Number of primitive Cartesian functions:                               13
       Number of Cartesian basis functions:                                   35
       Number of spherical basis functions:                                   30
       Norm type:                                                              2

       Normalised Cartesian orbitals:

                        Set   Shell   Orbital            Exponent    Coefficient

                          1       1    1s              190.691690       0.195396
                                                        28.605532       0.363661
                                                         6.509594       0.612837
                                                         1.841246       0.914889

                          2       1    1s                0.598537       0.484985

                          3       1    1s                0.213976       0.224225

                          4       1    1s                0.080316       0.107526

                          5       1    1px               2.292000       4.019836
                          5       1    1py               2.292000       4.019836
                          5       1    1pz               2.292000       4.019836

                          6       1    1px               0.838000       1.142865
                          6       1    1py               0.838000       1.142865
                          6       1    1pz               0.838000       1.142865

                          7       1    1px               0.292000       0.305963
                          7       1    1py               0.292000       0.305963
                          7       1    1pz               0.292000       0.305963

                          8       1    1dx2              2.062000       5.840024
                          8       1    1dxy              2.062000      10.115218
                          8       1    1dxz              2.062000      10.115218
                          8       1    1dy2              2.062000       5.840024
                          8       1    1dyz              2.062000      10.115218
                          8       1    1dz2              2.062000       5.840024

                          9       1    1dx2              0.662000       0.799670
                          9       1    1dxy              0.662000       1.385069
                          9       1    1dxz              0.662000       1.385069
                          9       1    1dy2              0.662000       0.799670
                          9       1    1dyz              0.662000       1.385069
                          9       1    1dz2              0.662000       0.799670

                         10       1    1fx3              1.397000       3.123535
                         10       1    1fx2y             1.397000       6.984436
                         10       1    1fx2z             1.397000       6.984436
                         10       1    1fxy2             1.397000       6.984436
                         10       1    1fxyz             1.397000      12.097399
                         10       1    1fxz2             1.397000       6.984436
                         10       1    1fy3              1.397000       3.123535
                         10       1    1fy2z             1.397000       6.984436
                         10       1    1fyz2             1.397000       6.984436
                         10       1    1fz3              1.397000       3.123535

     RI Auxiliary Basis Set                                                RI-5Z

       Number of orbital shell sets:                                          21
       Number of orbital shells:                                              21
       Number of primitive Cartesian functions:                               21
       Number of Cartesian basis functions:                                  126
       Number of spherical basis functions:                                   91
       Norm type:                                                              2

       Normalised Cartesian orbitals:

                        Set   Shell   Orbital            Exponent    Coefficient

                          1       1    1s               23.321500       7.563581

                          2       1    1s                4.922970       2.355486

                          3       1    1s                1.775100       1.096042

                          4       1    1s                0.994218       0.709613

                          5       1    1s                0.506054       0.427620

                          6       1    1s                0.236911       0.242019

                          7       1    1px               5.974580      13.314483
                          7       1    1py               5.974580      13.314483
                          7       1    1pz               5.974580      13.314483

                          8       1    1px               2.052170       3.501118
                          8       1    1py               2.052170       3.501118
                          8       1    1pz               2.052170       3.501118

                          9       1    1px               1.248660       1.881462
                          9       1    1py               1.248660       1.881462
                          9       1    1pz               1.248660       1.881462

                         10       1    1px               0.805545       1.087808
                         10       1    1py               0.805545       1.087808
                         10       1    1pz               0.805545       1.087808

                         11       1    1px               0.347892       0.380843
                         11       1    1py               0.347892       0.380843
                         11       1    1pz               0.347892       0.380843

                         12       1    1dx2              3.858160      17.481346
                         12       1    1dxy              3.858160      30.278579
                         12       1    1dxz              3.858160      30.278579
                         12       1    1dy2              3.858160      17.481346
                         12       1    1dyz              3.858160      30.278579
                         12       1    1dz2              3.858160      17.481346

                         13       1    1dx2              1.710630       4.211459
                         13       1    1dxy              1.710630       7.294461
                         13       1    1dxz              1.710630       7.294461
                         13       1    1dy2              1.710630       4.211459
                         13       1    1dyz              1.710630       7.294461
                         13       1    1dz2              1.710630       4.211459

                         14       1    1dx2              0.979237       1.586584
                         14       1    1dxy              0.979237       2.748044
                         14       1    1dxz              0.979237       2.748044
                         14       1    1dy2              0.979237       1.586584
                         14       1    1dyz              0.979237       2.748044
                         14       1    1dz2              0.979237       1.586584

                         15       1    1dx2              0.625366       0.723843
                         15       1    1dxy              0.625366       1.253733
                         15       1    1dxz              0.625366       1.253733
                         15       1    1dy2              0.625366       0.723843
                         15       1    1dyz              0.625366       1.253733
                         15       1    1dz2              0.625366       0.723843

                         16       1    1fx3              3.101510      18.792914
                         16       1    1fx2y             3.101510      42.022232
                         16       1    1fx2z             3.101510      42.022232
                         16       1    1fxy2             3.101510      42.022232
                         16       1    1fxyz             3.101510      72.784641
                         16       1    1fxz2             3.101510      42.022232
                         16       1    1fy3              3.101510      18.792914
                         16       1    1fy2z             3.101510      42.022232
                         16       1    1fyz2             3.101510      42.022232
                         16       1    1fz3              3.101510      18.792914

                         17       1    1fx3              1.198110       2.210915
                         17       1    1fx2y             1.198110       4.943756
                         17       1    1fx2z             1.198110       4.943756
                         17       1    1fxy2             1.198110       4.943756
                         17       1    1fxyz             1.198110       8.562836
                         17       1    1fxz2             1.198110       4.943756
                         17       1    1fy3              1.198110       2.210915
                         17       1    1fy2z             1.198110       4.943756
                         17       1    1fyz2             1.198110       4.943756
                         17       1    1fz3              1.198110       2.210915

                         18       1    1fx3              0.572873       0.420326
                         18       1    1fx2y             0.572873       0.939876
                         18       1    1fx2z             0.572873       0.939876
                         18       1    1fxy2             0.572873       0.939876
                         18       1    1fxyz             0.572873       1.627914
                         18       1    1fxz2             0.572873       0.939876
                         18       1    1fy3              0.572873       0.420326
                         18       1    1fy2z             0.572873       0.939876
                         18       1    1fyz2             0.572873       0.939876
                         18       1    1fz3              0.572873       0.420326

                         19       1    1gx4              2.987800      22.576266
                         19       1    1gx3y             2.987800      59.731185
                         19       1    1gx3z             2.987800      59.731185
                         19       1    1gx2y2            2.987800      77.112629
                         19       1    1gx2yz            2.987800     133.562991
                         19       1    1gx2z2            2.987800      77.112629
                         19       1    1gxy3             2.987800      59.731185
                         19       1    1gxy2z            2.987800     133.562991
                         19       1    1gxyz2            2.987800     133.562991
                         19       1    1gxz3             2.987800      59.731185
                         19       1    1gy4              2.987800      22.576266
                         19       1    1gy3z             2.987800      59.731185
                         19       1    1gy2z2            2.987800      77.112629
                         19       1    1gyz3             2.987800      59.731185
                         19       1    1gz4              2.987800      22.576266

                         20       1    1gx4              1.231920       1.974865
                         20       1    1gx3y             1.231920       5.225001
                         20       1    1gx3z             1.231920       5.225001
                         20       1    1gx2y2            1.231920       6.745447
                         20       1    1gx2yz            1.231920      11.683456
                         20       1    1gx2z2            1.231920       6.745447
                         20       1    1gxy3             1.231920       5.225001
                         20       1    1gxy2z            1.231920      11.683456
                         20       1    1gxyz2            1.231920      11.683456
                         20       1    1gxz3             1.231920       5.225001
                         20       1    1gy4              1.231920       1.974865
                         20       1    1gy3z             1.231920       5.225001
                         20       1    1gy2z2            1.231920       6.745447
                         20       1    1gyz3             1.231920       5.225001
                         20       1    1gz4              1.231920       1.974865

                         21       1    1hx5              3.247390      34.106027
                         21       1    1hx4y             3.247390     102.318080
                         21       1    1hx4z             3.247390     102.318080
                         21       1    1hx3y2            3.247390     156.293448
                         21       1    1hx3yz            3.247390     270.708193
                         21       1    1hx3z2            3.247390     156.293448
                         21       1    1hx2y3            3.247390     156.293448
                         21       1    1hx2y2z           3.247390     349.482775
                         21       1    1hx2yz2           3.247390     349.482775
                         21       1    1hx2z3            3.247390     156.293448
                         21       1    1hxy4             3.247390     102.318080
                         21       1    1hxy3z            3.247390     270.708193
                         21       1    1hxy2z2           3.247390     349.482775
                         21       1    1hxyz3            3.247390     270.708193
                         21       1    1hxz4             3.247390     102.318080
                         21       1    1hy5              3.247390      34.106027
                         21       1    1hy4z             3.247390     102.318080
                         21       1    1hy3z2            3.247390     156.293448
                         21       1    1hy2z3            3.247390     156.293448
                         21       1    1hyz4             3.247390     102.318080
                         21       1    1hz5              3.247390      34.106027

     The atoms of this atomic kind are PAW atoms (GAPW):
       Hard Gaussian function radius:                                      1.200
       Rho0 radius:                                                        1.200
       Maximum GTO radius used for PAW projector construction:            24.566

     GAPW Soft Basis Set                                          def2-QZVP_soft

       Number of orbital shell sets:                                          10
       Number of orbital shells:                                              10
       Number of primitive Cartesian functions:                               10
       Number of Cartesian basis functions:                                   35
       Number of spherical basis functions:                                   30
       Norm type:                                                              2

       Normalised Cartesian orbitals:

                        Set   Shell   Orbital            Exponent    Coefficient

                          1       1    1s                1.841246       0.914889

                          2       1    1s                0.598537       0.484985

                          3       1    1s                0.213976       0.224225

                          4       1    1s                0.080316       0.107526

                          5       1    1px               2.292000       4.019836
                          5       1    1py               2.292000       4.019836
                          5       1    1pz               2.292000       4.019836

                          6       1    1px               0.838000       1.142865
                          6       1    1py               0.838000       1.142865
                          6       1    1pz               0.838000       1.142865

                          7       1    1px               0.292000       0.305963
                          7       1    1py               0.292000       0.305963
                          7       1    1pz               0.292000       0.305963

                          8       1    1dx2              2.062000       5.840024
                          8       1    1dxy              2.062000      10.115218
                          8       1    1dxz              2.062000      10.115218
                          8       1    1dy2              2.062000       5.840024
                          8       1    1dyz              2.062000      10.115218
                          8       1    1dz2              2.062000       5.840024

                          9       1    1dx2              0.662000       0.799670
                          9       1    1dxy              0.662000       1.385069
                          9       1    1dxz              0.662000       1.385069
                          9       1    1dy2              0.662000       0.799670
                          9       1    1dyz              0.662000       1.385069
                          9       1    1dz2              0.662000       0.799670

                         10       1    1fx3              1.397000       3.123535
                         10       1    1fx2y             1.397000       6.984436
                         10       1    1fx2z             1.397000       6.984436
                         10       1    1fxy2             1.397000       6.984436
                         10       1    1fxyz             1.397000      12.097399
                         10       1    1fxz2             1.397000       6.984436
                         10       1    1fy3              1.397000       3.123535
                         10       1    1fy2z             1.397000       6.984436
                         10       1    1fyz2             1.397000       6.984436
                         10       1    1fz3              1.397000       3.123535

     AE Potential information for                                            ALL

       Description:                                       All-electron potential
                                          Krack, Parrinello, PCCP 2, 2105 (2000)

       Gaussian exponent of the core charge distribution:              12.500000
       Electronic configuration (s p d ...):                           1   0   0

  2. Atomic kind: N                                     Number of atoms:       3

     Orbital Basis Set                                                 def2-QZVP

       Number of orbital shell sets:                                          17
       Number of orbital shells:                                              17
       Number of primitive Cartesian functions:                               29
       Number of Cartesian basis functions:                                   72
       Number of spherical basis functions:                                   57
       Norm type:                                                              2

       Normalised Cartesian orbitals:

                        Set   Shell   Orbital            Exponent    Coefficient

                          1       1    1s            90726.889210       0.264461
                                                     13590.528801       0.494937
                                                      3092.988378       0.855170
                                                       875.998764       1.389874
                                                       285.744700       2.121698
                                                       103.119134       2.979703
                                                        40.128557       3.622800
                                                        16.528096       3.451840

                          2       1    1s               69.390961       1.621997
                                                        20.428201       6.338076

                          3       1    1s                7.129259       3.109520

                          4       1    1s                3.132430       1.678113

                          5       1    1s                0.987558       0.706044

                          6       1    1s                0.387657       0.350143

                          7       1    1s                0.149099       0.171008

                          8       1    1px             150.057427      -1.834160
                                                        35.491599      -2.406167
                                                        11.247864      -2.652970
                                                         4.090031      -2.482665
                                                         1.622057      -1.818128
                          8       1    1py             150.057427      -1.834160
                                                        35.491599      -2.406167
                                                        11.247864      -2.652970
                                                         4.090031      -2.482665
                                                         1.622057      -1.818128
                          8       1    1pz             150.057427      -1.834160
                                                        35.491599      -2.406167
                                                        11.247864      -2.652970
                                                         4.090031      -2.482665
                                                         1.622057      -1.818128

                          9       1    1px               0.664423       0.855058
                          9       1    1py               0.664423       0.855058
                          9       1    1pz               0.664423       0.855058

                         10       1    1px               0.270998       0.278706
                         10       1    1py               0.270998       0.278706
                         10       1    1pz               0.270998       0.278706

                         11       1    1px               0.106887       0.087116
                         11       1    1py               0.106887       0.087116
                         11       1    1pz               0.106887       0.087116

                         12       1    1dx2              2.837000      10.207357
                         12       1    1dxy              2.837000      17.679661
                         12       1    1dxz              2.837000      17.679661
                         12       1    1dy2              2.837000      10.207357
                         12       1    1dyz              2.837000      17.679661
                         12       1    1dz2              2.837000      10.207357

                         13       1    1dx2              0.968000       1.554860
                         13       1    1dxy              0.968000       2.693097
                         13       1    1dxz              0.968000       2.693097
                         13       1    1dy2              0.968000       1.554860
                         13       1    1dyz              0.968000       2.693097
                         13       1    1dz2              0.968000       1.554860

                         14       1    1dx2              0.335000       0.242794
                         14       1    1dxy              0.335000       0.420531
                         14       1    1dxz              0.335000       0.420531
                         14       1    1dy2              0.335000       0.242794
                         14       1    1dyz              0.335000       0.420531
                         14       1    1dz2              0.335000       0.242794

                         15       1    1fx3              2.027000       7.217310
                         15       1    1fx2y             2.027000      16.138397
                         15       1    1fx2z             2.027000      16.138397
                         15       1    1fxy2             2.027000      16.138397
                         15       1    1fxyz             2.027000      27.952523
                         15       1    1fxz2             2.027000      16.138397
                         15       1    1fy3              2.027000       7.217310
                         15       1    1fy2z             2.027000      16.138397
                         15       1    1fyz2             2.027000      16.138397
                         15       1    1fz3              2.027000       7.217310

                         16       1    1fx3              0.685000       0.628432
                         16       1    1fx2y             0.685000       1.405216
                         16       1    1fx2z             0.685000       1.405216
                         16       1    1fxy2             0.685000       1.405216
                         16       1    1fxyz             0.685000       2.433906
                         16       1    1fxz2             0.685000       1.405216
                         16       1    1fy3              0.685000       0.628432
                         16       1    1fy2z             0.685000       1.405216
                         16       1    1fyz2             0.685000       1.405216
                         16       1    1fz3              0.685000       0.628432

                         17       1    1gx4              1.427000       2.958703
                         17       1    1gx3y             1.427000       7.827992
                         17       1    1gx3z             1.427000       7.827992
                         17       1    1gx2y2            1.427000      10.105894
                         17       1    1gx2yz            1.427000      17.503922
                         17       1    1gx2z2            1.427000      10.105894
                         17       1    1gxy3             1.427000       7.827992
                         17       1    1gxy2z            1.427000      17.503922
                         17       1    1gxyz2            1.427000      17.503922
                         17       1    1gxz3             1.427000       7.827992
                         17       1    1gy4              1.427000       2.958703
                         17       1    1gy3z             1.427000       7.827992
                         17       1    1gy2z2            1.427000      10.105894
                         17       1    1gyz3             1.427000       7.827992
                         17       1    1gz4              1.427000       2.958703

     RI Auxiliary Basis Set                                                RI-5Z

       Number of orbital shell sets:                                          39
       Number of orbital shells:                                              39
       Number of primitive Cartesian functions:                               39
       Number of Cartesian basis functions:                                  287
       Number of spherical basis functions:                                  193
       Norm type:                                                              2

       Normalised Cartesian orbitals:

                        Set   Shell   Orbital            Exponent    Coefficient

                          1       1    1s              330.814000      55.283815

                          2       1    1s               72.692500      17.743010

                          3       1    1s               18.515300       6.361480

                          4       1    1s                8.569100       3.569534

                          5       1    1s                3.809660       1.943456

                          6       1    1s                2.248340       1.308599

                          7       1    1s                1.312410       0.873901

                          8       1    1s                0.758637       0.579343

                          9       1    1s                0.378879       0.344180

                         10       1    1s                0.175888       0.193570

                         11       1    1px              66.987000     273.167010
                         11       1    1py              66.987000     273.167010
                         11       1    1pz              66.987000     273.167010

                         12       1    1px              18.749800      55.614225
                         12       1    1py              18.749800      55.614225
                         12       1    1pz              18.749800      55.614225

                         13       1    1px               7.480640      17.634515
                         13       1    1py               7.480640      17.634515
                         13       1    1pz               7.480640      17.634515

                         14       1    1px               3.761240       7.466274
                         14       1    1py               3.761240       7.466274
                         14       1    1pz               3.761240       7.466274

                         15       1    1px               2.075610       3.551177
                         15       1    1py               2.075610       3.551177
                         15       1    1pz               2.075610       3.551177

                         16       1    1px               0.990652       1.408775
                         16       1    1py               0.990652       1.408775
                         16       1    1pz               0.990652       1.408775

                         17       1    1px               0.519429       0.628562
                         17       1    1py               0.519429       0.628562
                         17       1    1pz               0.519429       0.628562

                         18       1    1px               0.311991       0.332367
                         18       1    1py               0.311991       0.332367
                         18       1    1pz               0.311991       0.332367

                         19       1    1dx2             17.120900     237.181597
                         19       1    1dxy             17.120900     410.810577
                         19       1    1dxz             17.120900     410.810577
                         19       1    1dy2             17.120900     237.181597
                         19       1    1dyz             17.120900     410.810577
                         19       1    1dz2             17.120900     237.181597

                         20       1    1dx2              5.810520      35.791979
                         20       1    1dxy              5.810520      61.993525
                         20       1    1dxz              5.810520      61.993525
                         20       1    1dy2              5.810520      35.791979
                         20       1    1dyz              5.810520      61.993525
                         20       1    1dz2              5.810520      35.791979

                         21       1    1dx2              3.550630      15.116246
                         21       1    1dxy              3.550630      26.182105
                         21       1    1dxz              3.550630      26.182105
                         21       1    1dy2              3.550630      15.116246
                         21       1    1dyz              3.550630      26.182105
                         21       1    1dz2              3.550630      15.116246

                         22       1    1dx2              2.262180       6.868027
                         22       1    1dxy              2.262180      11.895771
                         22       1    1dxz              2.262180      11.895771
                         22       1    1dy2              2.262180       6.868027
                         22       1    1dyz              2.262180      11.895771
                         22       1    1dz2              2.262180       6.868027

                         23       1    1dx2              1.105370       1.961317
                         23       1    1dxy              1.105370       3.397101
                         23       1    1dxz              1.105370       3.397101
                         23       1    1dy2              1.105370       1.961317
                         23       1    1dyz              1.105370       3.397101
                         23       1    1dz2              1.105370       1.961317

                         24       1    1dx2              0.568580       0.612766
                         24       1    1dxy              0.568580       1.061342
                         24       1    1dxz              0.568580       1.061342
                         24       1    1dy2              0.568580       0.612766
                         24       1    1dyz              0.568580       1.061342
                         24       1    1dz2              0.568580       0.612766

                         25       1    1dx2              0.281938       0.179547
                         25       1    1dxy              0.281938       0.310985
                         25       1    1dxz              0.281938       0.310985
                         25       1    1dy2              0.281938       0.179547
                         25       1    1dyz              0.281938       0.310985
                         25       1    1dz2              0.281938       0.179547

                         26       1    1fx3             10.195600     273.453335
                         26       1    1fx2y            10.195600     611.460245
                         26       1    1fx2z            10.195600     611.460245
                         26       1    1fxy2            10.195600     611.460245
                         26       1    1fxyz            10.195600    1059.080212
                         26       1    1fxz2            10.195600     611.460245
                         26       1    1fy3             10.195600     273.453335
                         26       1    1fy2z            10.195600     611.460245
                         26       1    1fyz2            10.195600     611.460245
                         26       1    1fz3             10.195600     273.453335

                         27       1    1fx3              4.611490      45.877243
                         27       1    1fx2y             4.611490     102.584634
                         27       1    1fx2z             4.611490     102.584634
                         27       1    1fxy2             4.611490     102.584634
                         27       1    1fxyz             4.611490     177.681798
                         27       1    1fxz2             4.611490     102.584634
                         27       1    1fy3              4.611490      45.877243
                         27       1    1fy2z             4.611490     102.584634
                         27       1    1fyz2             4.611490     102.584634
                         27       1    1fz3              4.611490      45.877243

                         28       1    1fx3              2.818460      15.152391
                         28       1    1fx2y             2.818460      33.881776
                         28       1    1fx2z             2.818460      33.881776
                         28       1    1fxy2             2.818460      33.881776
                         28       1    1fxyz             2.818460      58.684958
                         28       1    1fxz2             2.818460      33.881776
                         28       1    1fy3              2.818460      15.152391
                         28       1    1fy2z             2.818460      33.881776
                         28       1    1fyz2             2.818460      33.881776
                         28       1    1fz3              2.818460      15.152391

                         29       1    1fx3              1.544330       3.913990
                         29       1    1fx2y             1.544330       8.751947
                         29       1    1fx2z             1.544330       8.751947
                         29       1    1fxy2             1.544330       8.751947
                         29       1    1fxyz             1.544330      15.158817
                         29       1    1fxz2             1.544330       8.751947
                         29       1    1fy3              1.544330       3.913990
                         29       1    1fy2z             1.544330       8.751947
                         29       1    1fyz2             1.544330       8.751947
                         29       1    1fz3              1.544330       3.913990

                         30       1    1fx3              0.895075       1.147197
                         30       1    1fx2y             0.895075       2.565211
                         30       1    1fx2z             0.895075       2.565211
                         30       1    1fxy2             0.895075       2.565211
                         30       1    1fxyz             0.895075       4.443076
                         30       1    1fxz2             0.895075       2.565211
                         30       1    1fy3              0.895075       1.147197
                         30       1    1fy2z             0.895075       2.565211
                         30       1    1fyz2             0.895075       2.565211
                         30       1    1fz3              0.895075       1.147197

                         31       1    1fx3              0.470440       0.269829
                         31       1    1fx2y             0.470440       0.603356
                         31       1    1fx2z             0.470440       0.603356
                         31       1    1fxy2             0.470440       0.603356
                         31       1    1fxyz             0.470440       1.045044
                         31       1    1fxz2             0.470440       0.603356
                         31       1    1fy3              0.470440       0.269829
                         31       1    1fy2z             0.470440       0.603356
                         31       1    1fyz2             0.470440       0.603356
                         31       1    1fz3              0.470440       0.269829

                         32       1    1gx4              5.478920     119.631780
                         32       1    1gx3y             5.478920     316.515938
                         32       1    1gx3z             5.478920     316.515938
                         32       1    1gx2y2            5.478920     408.620318
                         32       1    1gx2yz            5.478920     707.751152
                         32       1    1gx2z2            5.478920     408.620318
                         32       1    1gxy3             5.478920     316.515938
                         32       1    1gxy2z            5.478920     707.751152
                         32       1    1gxyz2            5.478920     707.751152
                         32       1    1gxz3             5.478920     316.515938
                         32       1    1gy4              5.478920     119.631780
                         32       1    1gy3z             5.478920     316.515938
                         32       1    1gy2z2            5.478920     408.620318
                         32       1    1gyz3             5.478920     316.515938
                         32       1    1gz4              5.478920     119.631780

                         33       1    1gx4              3.053470      23.967238
                         33       1    1gx3y             3.053470      63.411351
                         33       1    1gx3z             3.053470      63.411351
                         33       1    1gx2y2            3.053470      81.863702
                         33       1    1gx2yz            3.053470     141.792090
                         33       1    1gx2z2            3.053470      81.863702
                         33       1    1gxy3             3.053470      63.411351
                         33       1    1gxy2z            3.053470     141.792090
                         33       1    1gxyz2            3.053470     141.792090
                         33       1    1gxz3             3.053470      63.411351
                         33       1    1gy4              3.053470      23.967238
                         33       1    1gy3z             3.053470      63.411351
                         33       1    1gy2z2            3.053470      81.863702
                         33       1    1gyz3             3.053470      63.411351
                         33       1    1gz4              3.053470      23.967238

                         34       1    1gx4              1.482770       3.287671
                         34       1    1gx3y             1.482770       8.698360
                         34       1    1gx3z             1.482770       8.698360
                         34       1    1gx2y2            1.482770      11.229534
                         34       1    1gx2yz            1.482770      19.450124
                         34       1    1gx2z2            1.482770      11.229534
                         34       1    1gxy3             1.482770       8.698360
                         34       1    1gxy2z            1.482770      19.450124
                         34       1    1gxyz2            1.482770      19.450124
                         34       1    1gxz3             1.482770       8.698360
                         34       1    1gy4              1.482770       3.287671
                         34       1    1gy3z             1.482770       8.698360
                         34       1    1gy2z2            1.482770      11.229534
                         34       1    1gyz3             1.482770       8.698360
                         34       1    1gz4              1.482770       3.287671

                         35       1    1gx4              0.844875       0.700027
                         35       1    1gx3y             0.844875       1.852097
                         35       1    1gx3z             0.844875       1.852097
                         35       1    1gx2y2            0.844875       2.391047
                         35       1    1gx2yz            0.844875       4.141415
                         35       1    1gx2z2            0.844875       2.391047
                         35       1    1gxy3             0.844875       1.852097
                         35       1    1gxy2z            0.844875       4.141415
                         35       1    1gxyz2            0.844875       4.141415
                         35       1    1gxz3             0.844875       1.852097
                         35       1    1gy4              0.844875       0.700027
                         35       1    1gy3z             0.844875       1.852097
                         35       1    1gy2z2            0.844875       2.391047
                         35       1    1gyz3             0.844875       1.852097
                         35       1    1gz4              0.844875       0.700027

                         36       1    1hx5              3.904570      62.080772
                         36       1    1hx4y             3.904570     186.242316
                         36       1    1hx4z             3.904570     186.242316
                         36       1    1hx3y2            3.904570     284.489837
                         36       1    1hx3yz            3.904570     492.750852
                         36       1    1hx3z2            3.904570     284.489837
                         36       1    1hx2y3            3.904570     284.489837
                         36       1    1hx2y2z           3.904570     636.138614
                         36       1    1hx2yz2           3.904570     636.138614
                         36       1    1hx2z3            3.904570     284.489837
                         36       1    1hxy4             3.904570     186.242316
                         36       1    1hxy3z            3.904570     492.750852
                         36       1    1hxy2z2           3.904570     636.138614
                         36       1    1hxyz3            3.904570     492.750852
                         36       1    1hxz4             3.904570     186.242316
                         36       1    1hy5              3.904570      62.080772
                         36       1    1hy4z             3.904570     186.242316
                         36       1    1hy3z2            3.904570     284.489837
                         36       1    1hy2z3            3.904570     284.489837
                         36       1    1hyz4             3.904570     186.242316
                         36       1    1hz5              3.904570      62.080772

                         37       1    1hx5              2.294020      11.022626
                         37       1    1hx4y             2.294020      33.067878
                         37       1    1hx4z             2.294020      33.067878
                         37       1    1hx3y2            2.294020      50.512017
                         37       1    1hx3yz            2.294020      87.489380
                         37       1    1hx3z2            2.294020      50.512017
                         37       1    1hx2y3            2.294020      50.512017
                         37       1    1hx2y2z           2.294020     112.948304
                         37       1    1hx2yz2           2.294020     112.948304
                         37       1    1hx2z3            2.294020      50.512017
                         37       1    1hxy4             2.294020      33.067878
                         37       1    1hxy3z            2.294020      87.489380
                         37       1    1hxy2z2           2.294020     112.948304
                         37       1    1hxyz3            2.294020      87.489380
                         37       1    1hxz4             2.294020      33.067878
                         37       1    1hy5              2.294020      11.022626
                         37       1    1hy4z             2.294020      33.067878
                         37       1    1hy3z2            2.294020      50.512017
                         37       1    1hy2z3            2.294020      50.512017
                         37       1    1hyz4             2.294020      33.067878
                         37       1    1hz5              2.294020      11.022626

                         38       1    1hx5              1.319300       1.825832
                         38       1    1hx4y             1.319300       5.477495
                         38       1    1hx4z             1.319300       5.477495
                         38       1    1hx3y2            1.319300       8.367012
                         38       1    1hx3yz            1.319300      14.492090
                         38       1    1hx3z2            1.319300       8.367012
                         38       1    1hx2y3            1.319300       8.367012
                         38       1    1hx2y2z           1.319300      18.709208
                         38       1    1hx2yz2           1.319300      18.709208
                         38       1    1hx2z3            1.319300       8.367012
                         38       1    1hxy4             1.319300       5.477495
                         38       1    1hxy3z            1.319300      14.492090
                         38       1    1hxy2z2           1.319300      18.709208
                         38       1    1hxyz3            1.319300      14.492090
                         38       1    1hxz4             1.319300       5.477495
                         38       1    1hy5              1.319300       1.825832
                         38       1    1hy4z             1.319300       5.477495
                         38       1    1hy3z2            1.319300       8.367012
                         38       1    1hy2z3            1.319300       8.367012
                         38       1    1hyz4             1.319300       5.477495
                         38       1    1hz5              1.319300       1.825832

                         39       1    1ix6              2.487090      13.630788
                         39       1    1ix5y             2.487090      45.208208
                         39       1    1ix5z             2.487090      45.208208
                         39       1    1ix4y2            2.487090      78.302913
                         39       1    1ix4yz            2.487090     135.624624
                         39       1    1ix4z2            2.487090      78.302913
                         39       1    1ix3y3            2.487090      92.649256
                         39       1    1ix3y2z           2.487090     207.170035
                         39       1    1ix3yz2           2.487090     207.170035
                         39       1    1ix3z3            2.487090      92.649256
                         39       1    1ix2y4            2.487090      78.302913
                         39       1    1ix2y3z           2.487090     207.170035
                         39       1    1ix2y2z2          2.487090     267.455365
                         39       1    1ix2yz3           2.487090     207.170035
                         39       1    1ix2z4            2.487090      78.302913
                         39       1    1ixy5             2.487090      45.208208
                         39       1    1ixy4z            2.487090     135.624624
                         39       1    1ixy3z2           2.487090     207.170035
                         39       1    1ixy2z3           2.487090     207.170035
                         39       1    1ixyz4            2.487090     135.624624
                         39       1    1ixz5             2.487090      45.208208
                         39       1    1iy6              2.487090      13.630788
                         39       1    1iy5z             2.487090      45.208208
                         39       1    1iy4z2            2.487090      78.302913
                         39       1    1iy3z3            2.487090      92.649256
                         39       1    1iy2z4            2.487090      78.302913
                         39       1    1iyz5             2.487090      45.208208
                         39       1    1iz6              2.487090      13.630788

     The atoms of this atomic kind are PAW atoms (GAPW):
       Hard Gaussian function radius:                                      1.512
       Rho0 radius:                                                        1.512
       Maximum GTO radius used for PAW projector construction:            24.566

     GAPW Soft Basis Set                                          def2-QZVP_soft

       Number of orbital shell sets:                                          17
       Number of orbital shells:                                              17
       Number of primitive Cartesian functions:                               15
       Number of Cartesian basis functions:                                   72
       Number of spherical basis functions:                                   57
       Norm type:                                                              2

       Normalised Cartesian orbitals:

                        Set   Shell   Orbital            Exponent    Coefficient

                          1       1    1s         

                          2       1    1s         

                          3       1    1s         

                          4       1    1s                3.132430       1.678113

                          5       1    1s                0.987558       0.706044

                          6       1    1s                0.387657       0.350143

                          7       1    1s                0.149099       0.171008

                          8       1    1px               4.090031      -2.482665
                                                         1.622057      -1.818128
                          8       1    1py               4.090031      -2.482665
                                                         1.622057      -1.818128
                          8       1    1pz               4.090031      -2.482665
                                                         1.622057      -1.818128

                          9       1    1px               0.664423       0.855058
                          9       1    1py               0.664423       0.855058
                          9       1    1pz               0.664423       0.855058

                         10       1    1px               0.270998       0.278706
                         10       1    1py               0.270998       0.278706
                         10       1    1pz               0.270998       0.278706

                         11       1    1px               0.106887       0.087116
                         11       1    1py               0.106887       0.087116
                         11       1    1pz               0.106887       0.087116

                         12       1    1dx2              2.837000      10.207357
                         12       1    1dxy              2.837000      17.679661
                         12       1    1dxz              2.837000      17.679661
                         12       1    1dy2              2.837000      10.207357
                         12       1    1dyz              2.837000      17.679661
                         12       1    1dz2              2.837000      10.207357

                         13       1    1dx2              0.968000       1.554860
                         13       1    1dxy              0.968000       2.693097
                         13       1    1dxz              0.968000       2.693097
                         13       1    1dy2              0.968000       1.554860
                         13       1    1dyz              0.968000       2.693097
                         13       1    1dz2              0.968000       1.554860

                         14       1    1dx2              0.335000       0.242794
                         14       1    1dxy              0.335000       0.420531
                         14       1    1dxz              0.335000       0.420531
                         14       1    1dy2              0.335000       0.242794
                         14       1    1dyz              0.335000       0.420531
                         14       1    1dz2              0.335000       0.242794

                         15       1    1fx3              2.027000       7.217310
                         15       1    1fx2y             2.027000      16.138397
                         15       1    1fx2z             2.027000      16.138397
                         15       1    1fxy2             2.027000      16.138397
                         15       1    1fxyz             2.027000      27.952523
                         15       1    1fxz2             2.027000      16.138397
                         15       1    1fy3              2.027000       7.217310
                         15       1    1fy2z             2.027000      16.138397
                         15       1    1fyz2             2.027000      16.138397
                         15       1    1fz3              2.027000       7.217310

                         16       1    1fx3              0.685000       0.628432
                         16       1    1fx2y             0.685000       1.405216
                         16       1    1fx2z             0.685000       1.405216
                         16       1    1fxy2             0.685000       1.405216
                         16       1    1fxyz             0.685000       2.433906
                         16       1    1fxz2             0.685000       1.405216
                         16       1    1fy3              0.685000       0.628432
                         16       1    1fy2z             0.685000       1.405216
                         16       1    1fyz2             0.685000       1.405216
                         16       1    1fz3              0.685000       0.628432

                         17       1    1gx4              1.427000       2.958703
                         17       1    1gx3y             1.427000       7.827992
                         17       1    1gx3z             1.427000       7.827992
                         17       1    1gx2y2            1.427000      10.105894
                         17       1    1gx2yz            1.427000      17.503922
                         17       1    1gx2z2            1.427000      10.105894
                         17       1    1gxy3             1.427000       7.827992
                         17       1    1gxy2z            1.427000      17.503922
                         17       1    1gxyz2            1.427000      17.503922
                         17       1    1gxz3             1.427000       7.827992
                         17       1    1gy4              1.427000       2.958703
                         17       1    1gy3z             1.427000       7.827992
                         17       1    1gy2z2            1.427000      10.105894
                         17       1    1gyz3             1.427000       7.827992
                         17       1    1gz4              1.427000       2.958703

     AE Potential information for                                            ALL

       Description:                                       All-electron potential
                                          Krack, Parrinello, PCCP 2, 2105 (2000)

       Gaussian exponent of the core charge distribution:               5.979100
       Electronic configuration (s p d ...):                           4   3   0


 MOLECULE KIND INFORMATION


 All atoms are their own molecule, skipping detailed information


 TOTAL NUMBERS AND MAXIMUM NUMBERS

  Total number of            - Atomic kinds:                                   2
                             - Atoms:                                          4
                             - Shell sets:                                    61
                             - Shells:                                        61
                             - Primitive Cartesian functions:                100
                             - Cartesian basis functions:                    251
                             - Spherical basis functions:                    201

  Maximum angular momentum of the orbital basis functions:                     4


 MODULE QUICKSTEP:  ATOMIC COORDINATES IN angstrom

  Atom  Kind  Element       X           Y           Z          Z(eff)       Mass

       1     1 H    1    7.439900    8.000000    6.649400      1.00       1.0079
       2     2 N    7    8.398400    8.000000    6.983200      7.00      14.0067
       3     2 N    7    8.398400    8.000000    8.228200      7.00      14.0067
       4     2 N    7    8.560100    8.000000    9.350600      7.00      14.0067




 SCF PARAMETERS         Density guess:                                   RESTART
                        --------------------------------------------------------
                        max_scf:                                             200
                        max_scf_history:                                       0
                        max_diis:                                              4
                        --------------------------------------------------------
                        eps_scf:                                        1.00E-06
                        eps_scf_history:                                0.00E+00
                        eps_diis:                                       1.00E-01
                        eps_eigval:                                     1.00E-05
                        --------------------------------------------------------
                        level_shift [a.u.]:                                 0.00
                        --------------------------------------------------------
                        Mixing method:                           DIRECT_P_MIXING
                        --------------------------------------------------------
                        No outer SCF

 PW_GRID| Information for grid number                                          1
 PW_GRID| Grid distributed over                                    40 processors
 PW_GRID| Real space group dimensions                                    40    1
 PW_GRID| the grid is blocked:                                                NO
 PW_GRID| Cutoff [a.u.]                                                    400.0
 PW_GRID| spherical cutoff:                                                   NO
 PW_GRID|   Bounds   1           -144     143                Points:         288
 PW_GRID|   Bounds   2           -144     143                Points:         288
 PW_GRID|   Bounds   3           -144     143                Points:         288
 PW_GRID| Volume element (a.u.^3)  0.1157E-02     Volume (a.u.^3)     27641.1785
 PW_GRID| Grid span                                                    FULLSPACE
 PW_GRID|   Distribution                         Average         Max         Min
 PW_GRID|   G-Vectors                           597196.8      597312      597024
 PW_GRID|   G-Rays                                2073.6        2074        2073
 PW_GRID|   Real Space Points                   597196.8      663552      580608

 PW_GRID| Information for grid number                                          2
 PW_GRID| Grid distributed over                                    40 processors
 PW_GRID| Real space group dimensions                                    40    1
 PW_GRID| the grid is blocked:                                                NO
 PW_GRID| Cutoff [a.u.]                                                    200.0
 PW_GRID| spherical cutoff:                                                   NO
 PW_GRID|   Bounds   1           -100      99                Points:         200
 PW_GRID|   Bounds   2           -100      99                Points:         200
 PW_GRID|   Bounds   3           -100      99                Points:         200
 PW_GRID| Volume element (a.u.^3)  0.3455E-02     Volume (a.u.^3)     27641.1785
 PW_GRID| Grid span                                                    FULLSPACE
 PW_GRID|   Distribution                         Average         Max         Min
 PW_GRID|   G-Vectors                           200000.0      200600      199600
 PW_GRID|   G-Rays                                1000.0        1003         998
 PW_GRID|   Real Space Points                   200000.0      200000      200000

 PW_GRID| Information for grid number                                          3
 PW_GRID| Grid distributed over                                    40 processors
 PW_GRID| Real space group dimensions                                    40    1
 PW_GRID| the grid is blocked:                                                NO
 PW_GRID| Cutoff [a.u.]                                                     66.7
 PW_GRID| spherical cutoff:                                                   NO
 PW_GRID|   Bounds   1            -60      59                Points:         120
 PW_GRID|   Bounds   2            -60      59                Points:         120
 PW_GRID|   Bounds   3            -60      59                Points:         120
 PW_GRID| Volume element (a.u.^3)  0.1600E-01     Volume (a.u.^3)     27641.1785
 PW_GRID| Grid span                                                    FULLSPACE
 PW_GRID|   Distribution                         Average         Max         Min
 PW_GRID|   G-Vectors                            43200.0       43560       42960
 PW_GRID|   G-Rays                                 360.0         363         358
 PW_GRID|   Real Space Points                    43200.0       43200       43200

 PW_GRID| Information for grid number                                          4
 PW_GRID| Grid distributed over                                    40 processors
 PW_GRID| Real space group dimensions                                    40    1
 PW_GRID| the grid is blocked:                                                NO
 PW_GRID| Cutoff [a.u.]                                                     22.2
 PW_GRID| spherical cutoff:                                                   NO
 PW_GRID|   Bounds   1            -36      35                Points:          72
 PW_GRID|   Bounds   2            -36      35                Points:          72
 PW_GRID|   Bounds   3            -36      35                Points:          72
 PW_GRID| Volume element (a.u.^3)  0.7406E-01     Volume (a.u.^3)     27641.1785
 PW_GRID| Grid span                                                    FULLSPACE
 PW_GRID|   Distribution                         Average         Max         Min
 PW_GRID|   G-Vectors                             9331.2        9432        9288
 PW_GRID|   G-Rays                                 129.6         131         129
[...]
 flops    91 x    30 x   193            885175200     100.0%      0.0%      0.0%
 flops   579 x    30 x    91            885175200     100.0%      0.0%      0.0%
 flops    91 x    91 x  1040            964570880     100.0%      0.0%      0.0%
 flops    91 x    57 x    57            993414240     100.0%      0.0%      0.0%
 flops   579 x    57 x    30           1108900800     100.0%      0.0%      0.0%
 flops    57 x   480 x    30           1378944000     100.0%      0.0%      0.0%
 flops    30 x   912 x    30           1428192000     100.0%      0.0%      0.0%
 flops    30 x   480 x    57           1428192000     100.0%      0.0%      0.0%
 flops    91 x   193 x  1066           1572661272     100.0%      0.0%      0.0%
 flops   193 x    91 x  1066           1572661272     100.0%      0.0%      0.0%
 flops    91 x    91 x  1025           1663652900     100.0%      0.0%      0.0%
 flops    91 x    57 x   193           1681832880     100.0%      0.0%      0.0%
 flops   579 x    57 x    91           1681832880     100.0%      0.0%      0.0%
 flops    91 x   114 x    57           1986828480     100.0%      0.0%      0.0%
 flops   579 x   114 x    30           2217801600     100.0%      0.0%      0.0%
 flops   579 x    30 x    57           3326702400     100.0%      0.0%      0.0%
 flops   579 x   114 x    91           3363665760     100.0%      0.0%      0.0%
 flops    91 x   114 x   193           3363665760     100.0%      0.0%      0.0%
 flops    57 x   510 x    30           4395384000     100.0%      0.0%      0.0%
 flops    30 x   969 x    30           4552362000     100.0%      0.0%      0.0%
 flops    30 x   510 x    57           4552362000     100.0%      0.0%      0.0%
 flops   193 x   193 x   193           5434927092     100.0%      0.0%      0.0%
 flops   579 x    30 x   193           5632048800     100.0%      0.0%      0.0%
 flops    91 x   193 x  1040           6137214720     100.0%      0.0%      0.0%
 flops   193 x    91 x  1040           6137214720     100.0%      0.0%      0.0%
 flops   579 x    57 x    57           6320734560     100.0%      0.0%      0.0%
 flops    91 x    91 x  1000           6492304000     100.0%      0.0%      0.0%
 flops    57 x   912 x    30           7859980800     100.0%      0.0%      0.0%
 flops    57 x   480 x    57           7859980800     100.0%      0.0%      0.0%
 flops    30 x   912 x    57           8140694400     100.0%      0.0%      0.0%
 flops   193 x   193 x  1066          10006273368     100.0%      0.0%      0.0%
 flops    91 x   193 x  1025          10585220100     100.0%      0.0%      0.0%
 flops   193 x    91 x  1025          10585220100     100.0%      0.0%      0.0%
 flops   579 x    57 x   193          10700892720     100.0%      0.0%      0.0%
 flops   579 x   114 x    57          12641469120     100.0%      0.0%      0.0%
 flops   579 x   114 x   193          21401785440     100.0%      0.0%      0.0%
 flops    57 x   969 x    30          25053688800     100.0%      0.0%      0.0%
 flops    57 x   510 x    57          25053688800     100.0%      0.0%      0.0%
 flops    30 x   969 x    57          25948463400     100.0%      0.0%      0.0%
 flops   193 x   193 x  1040          39048871680     100.0%      0.0%      0.0%
 flops    91 x   193 x  1000          41308176000     100.0%      0.0%      0.0%
 flops   193 x    91 x  1000          41308176000     100.0%      0.0%      0.0%
 flops    57 x   912 x    57          44801890560     100.0%      0.0%      0.0%
 flops   193 x   193 x  1025          67349916900     100.0%      0.0%      0.0%
 flops    57 x   969 x    57         142806026160     100.0%      0.0%      0.0%
 flops   193 x   193 x  1000         262828944000     100.0%      0.0%      0.0%
 flops inhomo. stacks                           0       0.0%      0.0%      0.0%
 flops total                       903.411989E+09     100.0%      0.0%      0.0%
 flops max/rank                     64.171388E+09     100.0%      0.0%      0.0%
 matmuls inhomo. stacks                         0       0.0%      0.0%      0.0%
 matmuls total                             102546     100.0%      0.0%      0.0%
 number of processed stacks                 31973     100.0%      0.0%      0.0%
 average stack size                                     3.2       0.0       0.0
 marketing flops                   912.669737E+09
 -------------------------------------------------------------------------------
 # multiplications                            916
 max memory usage/rank             556.126208E+06
 # max total images/rank                        5
 # max 3D layers                                1
 # MPI messages exchanged                 1152360
 MPI messages size (bytes):
  total size                        16.541503E+09
  min size                           0.000000E+00
  max size                         893.976000E+03
  average size                      14.354458E+03
 MPI breakdown and total messages size (bytes):
             size <=      128             1059477                        0
       128 < size <=     8192                1959                 13063176
      8192 < size <=    32768               19611                401469264
     32768 < size <=   131072               29649               1515987264
    131072 < size <=  4194304               41664              14611032576
   4194304 < size <= 16777216                   0                        0
  16777216 < size                               0                        0
 -------------------------------------------------------------------------------

 *** WARNING in dbcsr_mm.F:278 :: Using a non-square number of MPI ranks ***
 *** might lead to poor performance. Used ranks: 40 Suggested: 36 81     ***

 -------------------------------------------------------------------------------
 -                                                                             -
 -                      DBCSR MESSAGE PASSING PERFORMANCE                      -
 -                                                                             -
 -------------------------------------------------------------------------------

 ROUTINE             CALLS      AVE VOLUME [Bytes]
 MP_Group               57
 MP_Bcast               83                     12.
 MP_Allreduce         5342                      9.
 MP_Alltoall          3094                  72068.
 MP_Wait             63888
 MP_ISend            63084                  34254.
 MP_IRecv            63022                  17109.
 MP_Memory           93692
 -------------------------------------------------------------------------------


 MEMORY| Estimated peak process memory [MiB]                                 514

 -------------------------------------------------------------------------------
 ----                             MULTIGRID INFO                            ----
 -------------------------------------------------------------------------------
 count for grid        1:         227996          cutoff [a.u.]          200.00
 count for grid        2:          52355          cutoff [a.u.]           66.67
 count for grid        3:          17057          cutoff [a.u.]           22.22
 count for grid        4:           3067          cutoff [a.u.]            7.41
 total gridlevel count  :         300475

 -------------------------------------------------------------------------------
 -                                                                             -
 -                         MESSAGE PASSING PERFORMANCE                         -
 -                                                                             -
 -------------------------------------------------------------------------------

 ROUTINE             CALLS      AVE VOLUME [Bytes]
 MP_Group                5
 MP_Bcast              337                1702070.
 MP_Allreduce          825                 108241.
 MP_Sync                88
 MP_Alltoall           443                6492424.
 MP_ISendRecv         2964                  48115.
 MP_Wait              8568
 MP_comm_split          26
 MP_ISend             9660                 139483.
 MP_IRecv             8780                 244475.
 MP_Recv                 5                   3216.
 -------------------------------------------------------------------------------


 -------------------------------------------------------------------------------
 -                                                                             -
 -                           R E F E R E N C E S                               -
 -                                                                             -
 -------------------------------------------------------------------------------
 
 CP2K version 7.0 (Development Version), the CP2K developers group (2018).
 CP2K is freely available from https://www.cp2k.org/ .

 Schuett, Ole; Messmer, Peter; Hutter, Juerg; VandeVondele, Joost. 
 Electronic Structure Calculations on Graphics Processing Units, John Wiley & Sons, Ltd, 173-190 (2016). 
 GPU-Accelerated Sparse Matrix-Matrix Multiplication for Linear Scaling Density Functional Theory.
 https://dx.doi.org/10.1002/9781118670712.ch8


 Del Ben, M; Schuett, O; Wentz, T; Messmer, P; Hutter, J;
 VandeVondele, J. 
 COMPUTER PHYSICS COMMUNICATIONS, 187, 120-129 (2015). 
 Enabling simulation at the fifth rung of DFT: Large scale RPA
 calculations with excellent time to solution.
 https://dx.doi.org/10.1016/j.cpc.2014.10.021


 Borstnik, U; VandeVondele, J; Weber, V; Hutter, J. 
 PARALLEL COMPUTING, 40 (5-6), 47-58 (2014). 
 Sparse matrix multiplication: The distributed block-compressed sparse
 row library.
 https://dx.doi.org/10.1016/j.parco.2014.03.012


 Hutter, J; Iannuzzi, M; Schiffmann, F; VandeVondele, J. 
 WILEY INTERDISCIPLINARY REVIEWS-COMPUTATIONAL MOLECULAR SCIENCE, 4 (1), 15-25 (2014). 
 CP2K: atomistic simulations of condensed matter systems.
 https://dx.doi.org/10.1002/wcms.1159


 Del Ben, M; Hutter, J; VandeVondele, J. 
 JOURNAL OF CHEMICAL THEORY AND COMPUTATION, 9 (6), 2654-2671 (2013). 
 Electron Correlation in the Condensed Phase from a Resolution of
 Identity Approach Based on the Gaussian and Plane Waves Scheme.
 https://dx.doi.org/10.1021/ct4002202


 Del Ben, M; Hutter, J; VandeVondele, J. 
 JOURNAL OF CHEMICAL THEORY AND COMPUTATION, 8 (11), 4177-4188 (2012). 
 Second-Order Moller-Plesset Perturbation Theory in the Condensed Phase:
 An Efficient and Massively Parallel Gaussian and Plane Waves Approach.
 https://dx.doi.org/10.1021/ct300531w


 Guidon, M; Hutter, J; VandeVondele, J. 
 JOURNAL OF CHEMICAL THEORY AND COMPUTATION, 5 (11), 3010-3021 (2009). 
 Robust Periodic Hartree-Fock Exchange for Large-Scale Simulations Using
 Gaussian Basis Sets.
 https://dx.doi.org/10.1021/ct900494g


 Guidon, M; Schiffmann, F; Hutter, J; VandeVondele, J. 
 JOURNAL OF CHEMICAL PHYSICS, 128 (21), 214104 (2008). 
 Ab initio molecular dynamics using hybrid density functionals.
 https://dx.doi.org/10.1063/1.2931945


 Frigo, M; Johnson, SG. 
 PROCEEDINGS OF THE IEEE, 93 (2), 216-231 (2005). 
 The design and implementation of FFTW3.
 https://dx.doi.org/10.1109/JPROC.2004.840301


 Lippert, G; Hutter, J; Parrinello, M. 
 THEORETICAL CHEMISTRY ACCOUNTS, 103 (2), 124-140 (1999). 
 The Gaussian and augmented-plane-wave density functional method for ab
 initio molecular dynamics simulations.
 https://dx.doi.org/10.1007/s002140050523


 Krack, M; Parrinello, M. 
 PHYSICAL CHEMISTRY CHEMICAL PHYSICS, 2 (10), 2105-2112 (2000). 
 All-electron ab-initio molecular dynamics.
 https://dx.doi.org/10.1039/b001167n


 Martyna, GJ; Tuckerman, ME. 
 JOURNAL OF CHEMICAL PHYSICS, 110 (6), 2810-2821 (1999). 
 A reciprocal space based method for treating long range interactions in
 ab initio and force-field-based calculations in clusters.
 https://dx.doi.org/10.1063/1.477923


 Perdew, JP; Burke, K; Ernzerhof, M. 
 PHYSICAL REVIEW LETTERS, 77 (18), 3865-3868 (1996). 
 Generalized gradient approximation made simple.
 https://dx.doi.org/10.1103/PhysRevLett.77.3865


 -------------------------------------------------------------------------------
 -                                                                             -
 -                                T I M I N G                                  -
 -                                                                             -
 -------------------------------------------------------------------------------
 SUBROUTINE                       CALLS  ASD         SELF TIME        TOTAL TIME
                                MAXIMUM       AVERAGE  MAXIMUM  AVERAGE  MAXIMUM
 CP2K                                 1  1.0    0.014    0.020  128.382  128.383
 qs_energies                          1  2.0    0.000    0.001  127.268  127.269
 mp2_main                             1  3.0    0.000    0.000   92.131   92.142
 mp2_gpw_main                         1  4.0    0.001    0.002   78.894   78.895
 rpa_ri_compute_en                    1  5.0    0.000    0.008   42.994   42.995
 rpa_num_int                          1  6.0    0.001    0.002   42.430   42.431
 mp2_ri_gpw_compute_in                1  5.0    0.000    0.000   27.167   35.567
 compute_3c_overlap_int               1  6.0    8.371   10.903   26.101   34.501
 scf_env_do_scf                       1  3.0    0.000    0.000   34.408   34.408
 scf_env_do_scf_inner_loop           17  4.0    0.001    0.002   34.408   34.408
 qs_ks_build_kohn_sham_matrix        18  6.9    0.004    0.005   28.580   28.624
 qs_ks_update_qs_env                 17  5.0    0.000    0.000   27.725   27.768
 rebuild_ks_matrix                   17  6.0    0.000    0.000   27.724   27.766
 dbcsr_multiply_generic             916  9.9    0.063    0.079   21.324   24.423
 compute_3c_overlap_int_put_dbc   63121  7.0   17.140   22.704   17.140   22.704
 mp_comm_split_direct                 8  6.6    9.080   21.561    9.080   21.561
 create_dbcsr_matrices_im_time        1  5.0    0.275    0.278    8.729   21.160
 multiply_cannon                    916 10.9    0.185    0.214   16.171   20.413
 GW_postprocessing                    1  7.0    0.000    0.000   16.479   16.479
 compute_self_energy_im_time_gw       1  8.0    0.003    0.004   16.479   16.479
 pw_transfer                        375  9.6    0.035    0.043   14.698   15.252
 multiply_cannon_multrec          17503 11.9    6.041   15.127    7.213   15.213
 fft_wrap_pw1pw2                    319 10.7    0.005    0.005   14.445   15.043
 compute_mat_P_omega                  1  7.0    0.000    0.001   14.278   14.281
 fft_wrap_pw1pw2_200                210 11.8    0.958    1.157   13.598   14.115
 compute_vec_Sigma_x_minus_vxc_       1  4.0    0.000    0.000   13.212   13.212
 mp_waitall_1                     67388 13.3    8.072   13.159    8.072   13.159
 multiply_cannon_metrocomm3       17503 11.9    0.028    0.035    5.834   12.486
 integrate_four_center                1  5.0    0.003    0.005   12.340   12.341
 fft3d_ps                           319 12.7    4.751    5.404   10.772   12.075
 mp_sum_d                          1243  6.8    6.416   10.907    6.416   10.907
 rs_pw_transfer                     182  9.4    0.005    0.005   10.097   10.741
 multiply_cannon_metrocomm1       17503 11.9    0.013    0.023    1.665   10.540
 qs_vxc_create                       18  7.9    0.000    0.001    9.734    9.736
 xc_vxc_pw_create                    17  9.0    0.105    0.126    9.734    9.735
 compute_self_energy_im_time_gw     280  9.0    0.001    0.002    7.004    8.676
 mp_sum_l                          4542 10.9    3.798    8.422    3.798    8.422
 compute_mat_P_omega_calc_P          14  8.0    0.000    0.002    7.704    8.121
 dbcsr_trace_a_b_d                  596  9.9    0.006    0.076    2.758    7.228
 compute_self_energy_im_time_gw     280  9.0    0.001    0.001    2.711    7.181
 mp_waitany                        4984 11.4    5.205    7.090    5.205    7.090
 mp_alltoall_z22v                   319 14.7    4.669    7.075    4.669    7.075
 qs_rho_update_rho                   18  5.0    0.000    0.000    6.596    6.597
 calculate_rho_elec                  18  6.0    0.217    1.954    6.484    6.487
 calc_screening_functions             1  6.0    3.585    4.093    5.554    6.434
 mp_sync                             88  8.7    4.166    6.353    4.166    6.353
 rpa_num_int_im_t_alloc_mat_gw        1  7.0    0.000    0.000    0.391    6.294
 allocate_matrices_gw_im_time         1  8.0    0.000    0.000    0.391    6.294
 get_mat_3c_overl_int_gw              1  9.0    0.002    0.005    0.390    6.293
 fill_mat_3c_overl_int_gw             1 10.0    0.000    0.000    0.342    6.253
 rpa_num_int_im_t_alloc_mat_24        1  7.0    0.000    0.000    5.911    6.243
 cp_fm_copy_general                   2  8.0    0.000    0.001    5.906    6.234
 cp_fm_start_copy_general             2  9.0    0.001    0.003    5.905    6.233
 mp_allgather_i                       4 10.0    5.903    6.229    5.903    6.229
 GW3c_fill_mat                        1 11.0    0.144    3.077    0.309    6.212
 density_rs2pw                       18  7.0    0.002    0.002    5.759    6.034
 sum_up_and_integrate                18  7.9    0.048    0.066    4.845    5.653
 prepare_gapw_den                    18  7.9    0.001    0.001    5.577    5.653
 integrate_v_rspace                  18  8.9    0.102    0.946    4.797    5.616
 xc_rho_set_and_dset_create          17 10.0    0.067    0.079    4.404    5.013
 rs_pw_transfer_RS2PW_200            37  9.9    1.534    1.979    4.192    4.623
 potential_pw2rs                     18  9.9    0.003    0.003    4.527    4.543
 rs_pw_transfer_PW2RS_200            37 10.8    1.680    2.104    3.851    4.390
 yz_to_x                            160 13.2    0.531    0.659    3.118    4.373
 powell_optimize                 733370  7.0    3.164    4.069    3.164    4.069
 compute_self_energy_im_time_gw     280  9.0    0.001    0.002    3.896    3.935
 x_to_yz                            159 14.1    0.810    1.027    2.891    3.744
 compute_self_energy_im_time_gw     280  9.0    0.002    0.002    2.746    3.722
 compute_mat_P_omega_calc_M          42  8.0    0.001    0.001    3.266    3.271
 put_rho0_on_grid                    18  8.9    0.018    0.032    3.190    3.265
 integrate_vhg0_rspace               18  7.9    0.185    0.212    2.935    3.221
 mp_sum_dm                          222  7.6    2.231    3.140    2.231    3.140
 calculate_vxc_atom                  18  7.9    0.039    0.588    3.108    3.115
 make_m2s                          1832 10.9    0.043    0.046    2.470    3.035
 integrate_four_center_main           1  6.0    0.000    0.000    1.915    3.019
 integrate_four_center_bin          127  7.0    1.915    3.019    1.915    3.019
 make_images                       1832 11.9    0.063    0.069    2.255    2.841
 calc_pair_dist_radii                 1  6.0    1.076    1.260    2.272    2.784
 integrate_four_center_load           1  6.0    0.000    0.000    1.476    2.769
 hfx_load_balance                     1  7.0    0.000    0.000    1.476    2.769
 compute_mat_P_omega_fill_M_tot      14  8.0    0.000    0.000    2.688    2.704
 hfx_load_balance_range               1  8.0    0.002    0.022    1.344    2.638
 fill_mat_M_P_munu_from_M_mu_Pn      28  9.0    0.001    0.001    2.533    2.637
 -------------------------------------------------------------------------------

 The number of warnings for this run is : 3
 
 -------------------------------------------------------------------------------
  **** **** ******  **  PROGRAM ENDED AT                 2019-05-31 17:05:35.099
 ***** ** ***  *** **   PROGRAM RAN ON                                    tcopt4
 **    ****   ******    PROGRAM RAN BY                                   wilhelm
 ***** **    ** ** **   PROGRAM PROCESS ID                                 80891
  **** **  *******  **  PROGRAM STOPPED IN /data/wilhelm/2_job_test/11_GW100/3_c
                                           alcs/48_HN3
