 DBCSR| CPU Multiplication driver                                           BLAS
 DBCSR| Multrec recursion limit                                              512
 DBCSR| Multiplication stack size                                           1000
 DBCSR| Maximum elements for images                                    UNLIMITED
 DBCSR| Multiplicative factor virtual images                                   1
 DBCSR| Use multiplication densification                                       T
 DBCSR| Multiplication size stacks                                             3
 DBCSR| Number of 3D layers                                               SINGLE
 DBCSR| Use MPI memory allocation                                              T
 DBCSR| Use RMA algorithm                                                      F
 DBCSR| Use Communication thread                                               T
 DBCSR| Communication thread load                                             87


  **** **** ******  **  PROGRAM STARTED AT               2019-05-31 00:49:06.828
 ***** ** ***  *** **   PROGRAM STARTED ON                                tcopt4
 **    ****   ******    PROGRAM STARTED BY                               wilhelm
 ***** **    ** ** **   PROGRAM PROCESS ID                                 18466
  **** **  *******  **  PROGRAM STARTED IN /data/wilhelm/2_job_test/11_GW100/3_c
                                           alcs/01_He

 CP2K| version string:                    CP2K version 7.0 (Development Version)
 CP2K| source code revision number:                                  git:026fb12
 CP2K| cp2kflags: libint fftw3 libxc pexsi elpa=201705 parallel mpi3 scalapack q
 CP2K|            uip libderiv_max_am1=5 libint_max_am=6
 CP2K| is freely available from                            https://www.cp2k.org/
 CP2K| Program compiled at                         Sat May 11 13:15:02 CEST 2019
 CP2K| Program compiled on                                                tcopt4
 CP2K| Program compiled for                            local_valgrind_March_2019
 CP2K| Data directory path              /data/wilhelm/1_git_repository/cp2k/data
 CP2K| Input file name                                                    GW.inp

 GLOBAL| Force Environment number                                              1
 GLOBAL| Basis set file name                              BASIS_def2_QZVP_RI_ALL
 GLOBAL| Potential file name                                           POTENTIAL
 GLOBAL| MM Potential file name                                     MM_POTENTIAL
 GLOBAL| Coordinate file name                                          01_He.xyz
 GLOBAL| Method name                                                        CP2K
 GLOBAL| Project name                                                   ALL_ELEC
 GLOBAL| Preferred FFT library                                             FFTW3
 GLOBAL| Preferred diagonalization lib.                                       SL
 GLOBAL| Run type                                                         ENERGY
 GLOBAL| All-to-all communication in single precision                          F
 GLOBAL| FFTs using library dependent lengths                                  F
 GLOBAL| Global print level                                               MEDIUM
 GLOBAL| MPI I/O enabled                                                       T
 GLOBAL| Total number of message passing processes                             2
 GLOBAL| Number of threads for this process                                    1
 GLOBAL| This output is from process                                           0
 GLOBAL| CPU model name :  Intel(R) Xeon(R) CPU E5-2697 v3 @ 2.60GHz

 MEMORY| system memory details [Kb]
 MEMORY|                        rank 0           min           max       average
 MEMORY| MemTotal            396954008     396954008     396954008     396954008
 MEMORY| MemFree             194473488     194473488     194473488     194473488
 MEMORY| Buffers                226604        226604        226604        226604
 MEMORY| Cached               14245928      14245928      14245928      14245928
 MEMORY| Slab                   538504        538504        538504        538504
 MEMORY| SReclaimable           401932        401932        401932        401932
 MEMORY| MemLikelyFree       209347952     209347952     209347952     209347952


 *** Fundamental physical constants (SI units) ***

 *** Literature: B. J. Mohr and B. N. Taylor,
 ***             CODATA recommended values of the fundamental physical
 ***             constants: 2006, Web Version 5.1
 ***             http://physics.nist.gov/constants

 Speed of light in vacuum [m/s]                             2.99792458000000E+08
 Magnetic constant or permeability of vacuum [N/A**2]       1.25663706143592E-06
 Electric constant or permittivity of vacuum [F/m]          8.85418781762039E-12
 Planck constant (h) [J*s]                                  6.62606896000000E-34
 Planck constant (h-bar) [J*s]                              1.05457162825177E-34
 Elementary charge [C]                                      1.60217648700000E-19
 Electron mass [kg]                                         9.10938215000000E-31
 Electron g factor [ ]                                     -2.00231930436220E+00
 Proton mass [kg]                                           1.67262163700000E-27
 Fine-structure constant                                    7.29735253760000E-03
 Rydberg constant [1/m]                                     1.09737315685270E+07
 Avogadro constant [1/mol]                                  6.02214179000000E+23
 Boltzmann constant [J/K]                                   1.38065040000000E-23
 Atomic mass unit [kg]                                      1.66053878200000E-27
 Bohr radius [m]                                            5.29177208590000E-11

 *** Conversion factors ***

 [u] -> [a.u.]                                              1.82288848426455E+03
 [Angstrom] -> [Bohr] = [a.u.]                              1.88972613288564E+00
 [a.u.] = [Bohr] -> [Angstrom]                              5.29177208590000E-01
 [a.u.] -> [s]                                              2.41888432650478E-17
 [a.u.] -> [fs]                                             2.41888432650478E-02
 [a.u.] -> [J]                                              4.35974393937059E-18
 [a.u.] -> [N]                                              8.23872205491840E-08
 [a.u.] -> [K]                                              3.15774647902944E+05
 [a.u.] -> [kJ/mol]                                         2.62549961709828E+03
 [a.u.] -> [kcal/mol]                                       6.27509468713739E+02
 [a.u.] -> [Pa]                                             2.94210107994716E+13
 [a.u.] -> [bar]                                            2.94210107994716E+08
 [a.u.] -> [atm]                                            2.90362800883016E+08
 [a.u.] -> [eV]                                             2.72113838565563E+01
 [a.u.] -> [Hz]                                             6.57968392072181E+15
 [a.u.] -> [1/cm] (wave numbers)                            2.19474631370540E+05
 [a.u./Bohr**2] -> [1/cm]                                   5.14048714338585E+03
 

 CELL_TOP| Volume [angstrom^3]:                                         4096.000
 CELL_TOP| Vector a [angstrom    16.000     0.000     0.000    |a| =      16.000
 CELL_TOP| Vector b [angstrom     0.000    16.000     0.000    |b| =      16.000
 CELL_TOP| Vector c [angstrom     0.000     0.000    16.000    |c| =      16.000
 CELL_TOP| Angle (b,c), alpha [degree]:                                   90.000
 CELL_TOP| Angle (a,c), beta  [degree]:                                   90.000
 CELL_TOP| Angle (a,b), gamma [degree]:                                   90.000
 CELL_TOP| Numerically orthorhombic:                                         YES

 GENERATE|  Preliminary Number of Bonds generated:                             0
 GENERATE|  Achieved consistency in connectivity generation.

 CELL| Volume [angstrom^3]:                                             4096.000
 CELL| Vector a [angstrom]:      16.000     0.000     0.000    |a| =      16.000
 CELL| Vector b [angstrom]:       0.000    16.000     0.000    |b| =      16.000
 CELL| Vector c [angstrom]:       0.000     0.000    16.000    |c| =      16.000
 CELL| Angle (b,c), alpha [degree]:                                       90.000
 CELL| Angle (a,c), beta  [degree]:                                       90.000
 CELL| Angle (a,b), gamma [degree]:                                       90.000
 CELL| Numerically orthorhombic:                                             YES

 CELL_REF| Volume [angstrom^3]:                                         4096.000
 CELL_REF| Vector a [angstrom    16.000     0.000     0.000    |a| =      16.000
 CELL_REF| Vector b [angstrom     0.000    16.000     0.000    |b| =      16.000
 CELL_REF| Vector c [angstrom     0.000     0.000    16.000    |c| =      16.000
 CELL_REF| Angle (b,c), alpha [degree]:                                   90.000
 CELL_REF| Angle (a,c), beta  [degree]:                                   90.000
 CELL_REF| Angle (a,b), gamma [degree]:                                   90.000
 CELL_REF| Numerically orthorhombic:                                         YES

 *******************************************************************************
 *******************************************************************************
 **                                                                           **
 **     #####                         ##              ##                      **
 **    ##   ##            ##          ##              ##                      **
 **   ##     ##                       ##            ######                    **
 **   ##     ##  ##   ##  ##   #####  ##  ##   ####   ##    #####    #####    **
 **   ##     ##  ##   ##  ##  ##      ## ##   ##      ##   ##   ##  ##   ##   **
 **   ##  ## ##  ##   ##  ##  ##      ####     ###    ##   ######   ######    **
 **    ##  ###   ##   ##  ##  ##      ## ##      ##   ##   ##       ##        **
 **     #######   #####   ##   #####  ##  ##  ####    ##    #####   ##        **
 **           ##                                                    ##        **
 **                                                                           **
 **                                                ... make the atoms dance   **
 **                                                                           **
 **            Copyright (C) by CP2K developers group (2000 - 2019)           **
 **                                                                           **
 *******************************************************************************

 DFT| Spin restricted Kohn-Sham (RKS) calculation                            RKS
 DFT| Multiplicity                                                             1
 DFT| Number of spin states                                                    1
 DFT| Charge                                                                   0
 DFT| Self-interaction correction (SIC)                                       NO
 DFT| Cutoffs: density                                              1.000000E-10
 DFT|          gradient                                             1.000000E-10
 DFT|          tau                                                  1.000000E-10
 DFT|          cutoff_smoothing_range                               0.000000E+00
 DFT| XC density smoothing                                                  NONE
 DFT| XC derivatives                                                          PW
 FUNCTIONAL| ROUTINE=NEW
 FUNCTIONAL| PBE:
 FUNCTIONAL| J.P.Perdew, K.Burke, M.Ernzerhof, Phys. Rev. Letter, vol. 77, n 18,
 FUNCTIONAL|  pp. 3865-3868, (1996){spin unpolarized}                           

 QS| Method:                                                                GAPW
 QS| Density plane wave grid type                        NON-SPHERICAL FULLSPACE
 QS| Number of grid levels:                                                    4
 QS| Density cutoff [a.u.]:                                                200.0
 QS| Multi grid cutoff [a.u.]: 1) grid level                               200.0
 QS|                           2) grid level                                66.7
 QS|                           3) grid level                                22.2
 QS|                           4) grid level                                 7.4
 QS| Grid level progression factor:                                          3.0
 QS| Relative density cutoff [a.u.]:                                        25.0
 QS| Consistent realspace mapping and integration 
 QS| Interaction thresholds: eps_pgf_orb:                                1.0E-05
 QS|                         eps_filter_matrix:                          0.0E+00
 QS|                         eps_core_charge:                            1.0E-12
 QS|                         eps_rho_gspace:                             1.0E-10
 QS|                         eps_rho_rspace:                             1.0E-10
 QS|                         eps_gvg_rspace:                             1.0E-05
 QS|                         eps_ppl:                                    1.0E-02
 QS|                         eps_ppnl:                                   1.0E-07
 QS| GAPW|                   eps_fit:                                    1.0E-04
 QS| GAPW|                   eps_iso:                                    1.0E-12
 QS| GAPW|                   eps_svd:                                    1.0E-08
 QS| GAPW|                   eps_cpc:                                    1.0E-10
 QS| GAPW|   atom-r-grid: quadrature:                 GC_LOG                        
 QS| GAPW|      atom-s-grid:  max l :                                          6
 QS| GAPW|      max_l_rho0 :                                                   2


 ATOMIC KIND INFORMATION

  1. Atomic kind: He                                    Number of atoms:       1

     Orbital Basis Set                                                 def2-QZVP

       Number of orbital shell sets:                                          10
       Number of orbital shells:                                              10
       Number of primitive Cartesian functions:                               14
       Number of Cartesian basis functions:                                   35
       Number of spherical basis functions:                                   30
       Norm type:                                                              2

       Normalised Cartesian orbitals:

                        Set   Shell   Orbital            Exponent    Coefficient

                          1       1    1s             1144.647081       0.231717
                                                       171.645967       0.431697
                                                        39.066056       0.730707
                                                        11.051402       1.103692
                                                         3.572557       1.379698

                          2       1    1s                1.242942       0.838973

                          3       1    1s                0.448077       0.390323

                          4       1    1s                0.164116       0.183769

                          5       1    1px               5.994000      13.368603
                          5       1    1py               5.994000      13.368603
                          5       1    1pz               5.994000      13.368603

                          6       1    1px               1.745000       2.858804
                          6       1    1py               1.745000       2.858804
                          6       1    1pz               1.745000       2.858804

                          7       1    1px               0.560000       0.690518
                          7       1    1py               0.560000       0.690518
                          7       1    1pz               0.560000       0.690518

                          8       1    1dx2              4.299000      21.125281
                          8       1    1dxy              4.299000      36.590059
                          8       1    1dxz              4.299000      36.590059
                          8       1    1dy2              4.299000      21.125281
                          8       1    1dyz              4.299000      36.590059
                          8       1    1dz2              4.299000      21.125281

                          9       1    1dx2              1.223000       2.341023
                          9       1    1dxy              1.223000       4.054771
                          9       1    1dxz              1.223000       4.054771
                          9       1    1dy2              1.223000       2.341023
                          9       1    1dyz              1.223000       4.054771
                          9       1    1dz2              1.223000       2.341023

                         10       1    1fx3              2.680000      13.528752
                         10       1    1fx2y             2.680000      30.251209
                         10       1    1fx2z             2.680000      30.251209
                         10       1    1fxy2             2.680000      30.251209
                         10       1    1fxyz             2.680000      52.396631
                         10       1    1fxz2             2.680000      30.251209
                         10       1    1fy3              2.680000      13.528752
                         10       1    1fy2z             2.680000      30.251209
                         10       1    1fyz2             2.680000      30.251209
                         10       1    1fz3              2.680000      13.528752

     RI Auxiliary Basis Set                                                RI-5Z

       Number of orbital shell sets:                                          21
       Number of orbital shells:                                              21
       Number of primitive Cartesian functions:                               21
       Number of Cartesian basis functions:                                  126
       Number of spherical basis functions:                                   91
       Norm type:                                                              2

       Normalised Cartesian orbitals:

                        Set   Shell   Orbital            Exponent    Coefficient

                          1       1    1s               69.957700      17.239979

                          2       1    1s               15.569200       5.586114

                          3       1    1s                5.026940       2.392698

                          4       1    1s                1.997460       1.197481

                          5       1    1s                0.847999       0.629806

                          6       1    1s                0.373257       0.340342

                          7       1    1px              14.241400      39.434918
                          7       1    1py              14.241400      39.434918
                          7       1    1pz              14.241400      39.434918

                          8       1    1px               4.785100      10.087972
                          8       1    1py               4.785100      10.087972
                          8       1    1pz               4.785100      10.087972

                          9       1    1px               3.288140       6.311433
                          9       1    1py               3.288140       6.311433
                          9       1    1pz               3.288140       6.311433

                         10       1    1px               1.899330       3.178269
                         10       1    1py               1.899330       3.178269
                         10       1    1pz               1.899330       3.178269

                         11       1    1px               0.772218       1.031846
                         11       1    1py               0.772218       1.031846
                         11       1    1pz               0.772218       1.031846

                         12       1    1dx2             11.057200     110.354106
                         12       1    1dxy             11.057200     191.138918
                         12       1    1dxz             11.057200     191.138918
                         12       1    1dy2             11.057200     110.354106
                         12       1    1dyz             11.057200     191.138918
                         12       1    1dz2             11.057200     110.354106

                         13       1    1dx2              5.762230      35.273048
                         13       1    1dxy              5.762230      61.094711
                         13       1    1dxz              5.762230      61.094711
                         13       1    1dy2              5.762230      35.273048
                         13       1    1dyz              5.762230      61.094711
                         13       1    1dz2              5.762230      35.273048

                         14       1    1dx2              3.520060      14.889224
                         14       1    1dxy              3.520060      25.788893
                         14       1    1dxz              3.520060      25.788893
                         14       1    1dy2              3.520060      14.889224
                         14       1    1dyz              3.520060      25.788893
                         14       1    1dz2              3.520060      14.889224

                         15       1    1dx2              1.340090       2.747223
                         15       1    1dxy              1.340090       4.758330
                         15       1    1dxz              1.340090       4.758330
                         15       1    1dy2              1.340090       2.747223
                         15       1    1dyz              1.340090       4.758330
                         15       1    1dz2              1.340090       2.747223

                         16       1    1fx3              8.291460     171.741093
                         16       1    1fx2y             8.291460     384.024758
                         16       1    1fx2z             8.291460     384.024758
                         16       1    1fxy2             8.291460     384.024758
                         16       1    1fxyz             8.291460     665.150392
                         16       1    1fxz2             8.291460     384.024758
                         16       1    1fy3              8.291460     171.741093
                         16       1    1fy2z             8.291460     384.024758
                         16       1    1fyz2             8.291460     384.024758
                         16       1    1fz3              8.291460     171.741093

                         17       1    1fx3              5.450110      66.813820
                         17       1    1fx2y             5.450110     149.400243
                         17       1    1fx2z             5.450110     149.400243
                         17       1    1fxy2             5.450110     149.400243
                         17       1    1fxyz             5.450110     258.768812
                         17       1    1fxz2             5.450110     149.400243
                         17       1    1fy3              5.450110      66.813820
                         17       1    1fy2z             5.450110     149.400243
                         17       1    1fyz2             5.450110     149.400243
                         17       1    1fz3              5.450110      66.813820

                         18       1    1fx3              2.267140       9.284974
                         18       1    1fx2y             2.267140      20.761834
                         18       1    1fx2z             2.267140      20.761834
                         18       1    1fxy2             2.267140      20.761834
                         18       1    1fxyz             2.267140      35.960551
                         18       1    1fxz2             2.267140      20.761834
                         18       1    1fy3              2.267140       9.284974
                         18       1    1fy2z             2.267140      20.761834
                         18       1    1fyz2             2.267140      20.761834
                         18       1    1fz3              2.267140       9.284974

                         19       1    1gx4              8.220310     365.071528
                         19       1    1gx3y             8.220310     965.888474
                         19       1    1gx3z             8.220310     965.888474
                         19       1    1gx2y2            8.220310    1246.956658
                         19       1    1gx2yz            8.220310    2159.792286
                         19       1    1gx2z2            8.220310    1246.956658
                         19       1    1gxy3             8.220310     965.888474
                         19       1    1gxy2z            8.220310    2159.792286
                         19       1    1gxyz2            8.220310    2159.792286
                         19       1    1gxz3             8.220310     965.888474
                         19       1    1gy4              8.220310     365.071528
                         19       1    1gy3z             8.220310     965.888474
                         19       1    1gy2z2            8.220310    1246.956658
                         19       1    1gyz3             8.220310     965.888474
                         19       1    1gz4              8.220310     365.071528

                         20       1    1gx4              4.159820      56.090641
                         20       1    1gx3y             4.159820     148.401888
                         20       1    1gx3z             4.159820     148.401888
                         20       1    1gx2y2            4.159820     191.586014
                         20       1    1gx2yz            4.159820     331.836710
                         20       1    1gx2z2            4.159820     191.586014
                         20       1    1gxy3             4.159820     148.401888
                         20       1    1gxy2z            4.159820     331.836710
                         20       1    1gxyz2            4.159820     331.836710
                         20       1    1gxz3             4.159820     148.401888
                         20       1    1gy4              4.159820      56.090641
                         20       1    1gy3z             4.159820     148.401888
                         20       1    1gy2z2            4.159820     191.586014
                         20       1    1gyz3             4.159820     148.401888
                         20       1    1gz4              4.159820      56.090641

                         21       1    1hx5              5.848000     230.737456
                         21       1    1hx4y             5.848000     692.212367
                         21       1    1hx4z             5.848000     692.212367
                         21       1    1hx3y2            5.848000    1057.371856
                         21       1    1hx3yz            5.848000    1831.421777
                         21       1    1hx3z2            5.848000    1057.371856
                         21       1    1hx2y3            5.848000    1057.371856
                         21       1    1hx2y2z           5.848000    2364.355347
                         21       1    1hx2yz2           5.848000    2364.355347
                         21       1    1hx2z3            5.848000    1057.371856
                         21       1    1hxy4             5.848000     692.212367
                         21       1    1hxy3z            5.848000    1831.421777
                         21       1    1hxy2z2           5.848000    2364.355347
                         21       1    1hxyz3            5.848000    1831.421777
                         21       1    1hxz4             5.848000     692.212367
                         21       1    1hy5              5.848000     230.737456
                         21       1    1hy4z             5.848000     692.212367
                         21       1    1hy3z2            5.848000    1057.371856
                         21       1    1hy2z3            5.848000    1057.371856
                         21       1    1hyz4             5.848000     692.212367
                         21       1    1hz5              5.848000     230.737456

     The atoms of this atomic kind are PAW atoms (GAPW):
       Hard Gaussian function radius:                                      1.512
       Rho0 radius:                                                        1.512
       Maximum GTO radius used for PAW projector construction:            24.566

     GAPW Soft Basis Set                                          def2-QZVP_soft

       Number of orbital shell sets:                                          10
       Number of orbital shells:                                              10
       Number of primitive Cartesian functions:                                9
       Number of Cartesian basis functions:                                   35
       Number of spherical basis functions:                                   30
       Norm type:                                                              2

       Normalised Cartesian orbitals:

                        Set   Shell   Orbital            Exponent    Coefficient

                          1       1    1s                3.572557       1.379698

                          2       1    1s                1.242942       0.838973

                          3       1    1s                0.448077       0.390323

                          4       1    1s                0.164116       0.183769

                          5       1    1px        
                          5       1    1py        
                          5       1    1pz        

                          6       1    1px               1.745000       2.858804
                          6       1    1py               1.745000       2.858804
                          6       1    1pz               1.745000       2.858804

                          7       1    1px               0.560000       0.690518
                          7       1    1py               0.560000       0.690518
                          7       1    1pz               0.560000       0.690518

                          8       1    1dx2              4.299000      21.125281
                          8       1    1dxy              4.299000      36.590059
                          8       1    1dxz              4.299000      36.590059
                          8       1    1dy2              4.299000      21.125281
                          8       1    1dyz              4.299000      36.590059
                          8       1    1dz2              4.299000      21.125281

                          9       1    1dx2              1.223000       2.341023
                          9       1    1dxy              1.223000       4.054771
                          9       1    1dxz              1.223000       4.054771
                          9       1    1dy2              1.223000       2.341023
                          9       1    1dyz              1.223000       4.054771
                          9       1    1dz2              1.223000       2.341023

                         10       1    1fx3              2.680000      13.528752
                         10       1    1fx2y             2.680000      30.251209
                         10       1    1fx2z             2.680000      30.251209
                         10       1    1fxy2             2.680000      30.251209
                         10       1    1fxyz             2.680000      52.396631
                         10       1    1fxz2             2.680000      30.251209
                         10       1    1fy3              2.680000      13.528752
                         10       1    1fy2z             2.680000      30.251209
                         10       1    1fyz2             2.680000      30.251209
                         10       1    1fz3              2.680000      13.528752

     AE Potential information for                                            ALL

       Description:                                       All-electron potential
                                          Krack, Parrinello, PCCP 2, 2105 (2000)

       Gaussian exponent of the core charge distribution:              12.500000
       Electronic configuration (s p d ...):                           2   0   0


 MOLECULE KIND INFORMATION


 All atoms are their own molecule, skipping detailed information


 TOTAL NUMBERS AND MAXIMUM NUMBERS

  Total number of            - Atomic kinds:                                   1
                             - Atoms:                                          1
                             - Shell sets:                                    10
                             - Shells:                                        10
                             - Primitive Cartesian functions:                 14
                             - Cartesian basis functions:                     35
                             - Spherical basis functions:                     30

  Maximum angular momentum of the orbital basis functions:                     3


 MODULE QUICKSTEP:  ATOMIC COORDINATES IN angstrom

  Atom  Kind  Element       X           Y           Z          Z(eff)       Mass

       1     1 He   2    8.000000    8.000000    8.000000      2.00       4.0026




 SCF PARAMETERS         Density guess:                                   RESTART
                        --------------------------------------------------------
                        max_scf:                                             200
                        max_scf_history:                                       0
                        max_diis:                                              4
                        --------------------------------------------------------
                        eps_scf:                                        1.00E-06
                        eps_scf_history:                                0.00E+00
                        eps_diis:                                       1.00E-01
                        eps_eigval:                                     1.00E-05
                        --------------------------------------------------------
                        level_shift [a.u.]:                                 0.00
                        --------------------------------------------------------
                        Mixing method:                           DIRECT_P_MIXING
                        --------------------------------------------------------
                        No outer SCF

 PW_GRID| Information for grid number                                          1
 PW_GRID| Grid distributed over                                     2 processors
 PW_GRID| Real space group dimensions                                     2    1
 PW_GRID| the grid is blocked:                                                NO
 PW_GRID| Cutoff [a.u.]                                                    400.0
 PW_GRID| spherical cutoff:                                                   NO
 PW_GRID|   Bounds   1           -144     143                Points:         288
 PW_GRID|   Bounds   2           -144     143                Points:         288
 PW_GRID|   Bounds   3           -144     143                Points:         288
 PW_GRID| Volume element (a.u.^3)  0.1157E-02     Volume (a.u.^3)     27641.1785
 PW_GRID| Grid span                                                    FULLSPACE
 PW_GRID|   Distribution                         Average         Max         Min
 PW_GRID|   G-Vectors                         11943936.0    11943936    11943936
 PW_GRID|   G-Rays                               41472.0       41472       41472
 PW_GRID|   Real Space Points                 11943936.0    11943936    11943936

 PW_GRID| Information for grid number                                          2
 PW_GRID| Grid distributed over                                     2 processors
 PW_GRID| Real space group dimensions                                     2    1
 PW_GRID| the grid is blocked:                                                NO
 PW_GRID| Cutoff [a.u.]                                                    200.0
 PW_GRID| spherical cutoff:                                                   NO
 PW_GRID|   Bounds   1           -100      99                Points:         200
 PW_GRID|   Bounds   2           -100      99                Points:         200
 PW_GRID|   Bounds   3           -100      99                Points:         200
 PW_GRID| Volume element (a.u.^3)  0.3455E-02     Volume (a.u.^3)     27641.1785
 PW_GRID| Grid span                                                    FULLSPACE
 PW_GRID|   Distribution                         Average         Max         Min
 PW_GRID|   G-Vectors                          4000000.0     4000200     3999800
 PW_GRID|   G-Rays                               20000.0       20001       19999
 PW_GRID|   Real Space Points                  4000000.0     4000000     4000000

 PW_GRID| Information for grid number                                          3
 PW_GRID| Grid distributed over                                     2 processors
 PW_GRID| Real space group dimensions                                     2    1
 PW_GRID| the grid is blocked:                                                NO
 PW_GRID| Cutoff [a.u.]                                                     66.7
 PW_GRID| spherical cutoff:                                                   NO
 PW_GRID|   Bounds   1            -60      59                Points:         120
 PW_GRID|   Bounds   2            -60      59                Points:         120
 PW_GRID|   Bounds   3            -60      59                Points:         120
 PW_GRID| Volume element (a.u.^3)  0.1600E-01     Volume (a.u.^3)     27641.1785
 PW_GRID| Grid span                                                    FULLSPACE
 PW_GRID|   Distribution                         Average         Max         Min
 PW_GRID|   G-Vectors                           864000.0      864120      863880
 PW_GRID|   G-Rays                                7200.0        7201        7199
 PW_GRID|   Real Space Points                   864000.0      864000      864000

 PW_GRID| Information for grid number                                          4
 PW_GRID| Grid distributed over                                     2 processors
 PW_GRID| Real space group dimensions                                     2    1
 PW_GRID| the grid is blocked:                                                NO
 PW_GRID| Cutoff [a.u.]                                                     22.2
 PW_GRID| spherical cutoff:                                                   NO
 PW_GRID|   Bounds   1            -36      35                Points:          72
 PW_GRID|   Bounds   2            -36      35                Points:          72
 PW_GRID|   Bounds   3            -36      35                Points:          72
 PW_GRID| Volume element (a.u.^3)  0.7406E-01     Volume (a.u.^3)     27641.1785
 PW_GRID| Grid span                                                    FULLSPACE
 PW_GRID|   Distribution                         Average         Max         Min
 PW_GRID|   G-Vectors                           186624.0      186696      186552
 PW_GRID|   G-Rays                                2592.0        2593        2591
 PW_GRID|   Real Space Points                   186624.0      186624      186624

 PW_GRID| Information for grid number                                          5
 PW_GRID| Grid distributed over                                     2 processors
 PW_GRID| Real space group dimensions                                     2    1
 PW_GRID| the grid is blocked:                                                NO
 PW_GRID| Cutoff [a.u.]                                                      7.4
 PW_GRID| spherical cutoff:                                                   NO
 PW_GRID|   Bounds   1            -20      19                Points:          40
 PW_GRID|   Bounds   2            -20      19                Points:          40
 PW_GRID|   Bounds   3            -20      19                Points:          40
 PW_GRID| Volume element (a.u.^3)  0.4319         Volume (a.u.^3)     27641.1785
 PW_GRID| Grid span                                                    FULLSPACE
 PW_GRID|   Distribution                         Average         Max         Min
 PW_GRID|   G-Vectors                            32000.0       32040       31960
 PW_GRID|   G-Rays                                 800.0         801         799
 PW_GRID|   Real Space Points                    32000.0       32000       32000

 POISSON| Solver                                          Martyna-Tuckerman (MT)
 POISSON| MT| Alpha                                                        7.000
 POISSON| MT| Relative cutoff                                                2.0
 POISSON| Periodicity                                                       NONE

 RS_GRID| Information for grid number                                          2
 RS_GRID|   Bounds   1           -100      99                Points:         200
 RS_GRID|   Bounds   2           -100      99                Points:         200
 RS_GRID|   Bounds   3           -100      99                Points:         200
 RS_GRID| Real space fully replicated
 RS_GRID| Group size                                                           1

 RS_GRID| Information for grid number                                          3
 RS_GRID|   Bounds   1            -60      59                Points:         120
 RS_GRID|   Bounds   2            -60      59                Points:         120
 RS_GRID|   Bounds   3            -60      59                Points:         120
 RS_GRID| Real space fully replicated
 RS_GRID| Group size                                                           1

 RS_GRID| Information for grid number                                          4
 RS_GRID|   Bounds   1            -36      35                Points:          72
 RS_GRID|   Bounds   2            -36      35                Points:          72
 RS_GRID|   Bounds   3            -36      35                Points:          72
 RS_GRID| Real space fully replicated
 RS_GRID| Group size                                                           1

 RS_GRID| Information for grid number                                          5
 RS_GRID|   Bounds   1            -20      19                Points:          40
 RS_GRID|   Bounds   2            -20      19                Points:          40
 RS_GRID|   Bounds   3            -20      19                Points:          40
 RS_GRID| Real space fully replicated
 RS_GRID| Group size                                                           1
 
 RI-RPA| using GPW style
 

  HFX_INFO| Replica ID:                                                        1
  HFX_INFO| EPS_SCHWARZ:                                                 2.0E-17
  HFX_INFO| EPS_SCHWARZ_FORCES                                           1.0E-06
  HFX_INFO| EPS_STORAGE_SCALING:                                         1.0E+00
  HFX_INFO| NBINS:                                                            64
  HFX_INFO| BLOCK_SIZE:                                                        1
  HFX_INFO| FRACTION:                                               1.0000000000
  HFX_INFO| Interaction Potential:                                       COULOMB
  HFX_INFO| Number of periodic shells considered:                           NONE
  HFX_INFO| Number of periodic cells considered:                            NONE


 Number of electrons:                                                          2
 Number of occupied orbitals:                                                  1
 Number of molecular orbitals:                                                 1

 Number of orbital functions:                                                 30
 Number of independent orbital functions:                                     30

 Extrapolation method: initial_guess

 *** WARNING in qs_initial_guess.F:267 :: User requested to restart the   ***
 *** wavefunction from the file named: ALL_ELEC-RESTART.wfn. This file    ***
 *** does not exist. Please check the existence of the file or change     ***
 *** properly the value of the keyword WFN_RESTART_FILE_NAME. Calculation ***
 *** continues using ATOMIC GUESS.                                        ***


 Atomic guess: The first density matrix is obtained in terms of atomic orbitals
               and electronic configurations assigned to each atomic kind

 Guess for atomic kind: He

 Electronic structure
    Total number of core electrons                                          0.00
    Total number of valence electrons                                       2.00
    Total number of electrons                                               2.00
    Multiplicity                                                   not specified
    S      2.00


 *******************************************************************************
                  Iteration          Convergence                     Energy [au]
 *******************************************************************************
                          1        0.633191E-01                  -2.832290281215
                          2        0.266172E-01                  -2.833548314060
                          3        0.176260E-03                  -2.833819279018
                          4        0.721278E-05                  -2.833819290012
                          5        0.814386E-07                  -2.833819290031

 Energy components [Hartree]           Total Energy ::           -2.833819290031
                                        Band Energy ::           -1.139032671749
                                     Kinetic Energy ::            2.768452363449
                                   Potential Energy ::           -5.602271653480
                                      Virial (-V/T) ::            2.023611360428
                                        Core Energy ::           -3.858037117417
                                          XC Energy ::           -0.972750020670
                                     Coulomb Energy ::            1.996967848056

 Orbital energies  State     L     Occupation   Energy[a.u.]          Energy[eV]

                       1     0          2.000      -0.569516          -15.497328


 Total Electron Density at R=0:                                         3.412583
 Re-scaling the density matrix to get the right number of electrons
                  # Electrons              Trace(P)               Scaling factor
                            2                 2.000                        1.000


 SCF WAVEFUNCTION OPTIMIZATION

  Step     Update method      Time    Convergence         Total energy    Change
  ------------------------------------------------------------------------------
     1 P_Mix/Diag. 0.40E+00   39.3     0.01501529        -2.8920974994 -2.89E+00
     2 P_Mix/Diag. 0.40E+00   34.5     0.00812585        -2.8924332265 -3.36E-04
     3 DIIS/Diag.  0.71E-02   33.3     0.00573114        -2.8925975138 -1.64E-04
     4 DIIS/Diag.  0.12E-03   32.2     0.00006039        -2.8928232572 -2.26E-04
     5 DIIS/Diag.  0.30E-03   31.9     0.00008511        -2.8928232521  5.16E-09
     6 DIIS/Diag.  0.27E-03   31.0     0.00003983        -2.8928232532 -1.12E-09
     7 DIIS/Diag.  0.48E-05   32.8     0.00000073        -2.8928232581 -4.87E-09

  *** SCF run converged in     7 steps ***


  Electronic density on regular grids:         -1.8860158955        0.1139841045
  Core density on regular grids:                2.0000000000       -0.0000000000
  Hard and soft densities (Lebedev):           -1.9999999999       -1.8860158956
  Total Rho_soft + Rho1_hard - Rho1_soft       -1.9999999998
  Total charge density (r-space):               0.0000000002
  Total Rho_soft + Rho0_soft (g-space):        -0.0000000171

  Overlap energy of the core charge distribution:               0.00000000000000
  Self energy of the core charge distribution:                 -5.64189583547756
  Core Hamiltonian energy:                                      1.97489972214469
  Hartree energy:                                               0.75967602681160
  Exchange-correlation energy:                                 -0.91430592986236

  GAPW| Exc from hard and soft atomic rho1:                    -0.13227097477592
  GAPW| local Eh = 1 center integrals:                          1.06107373309054

  Total energy:                                                -2.89282325806901

 !-----------------------------------------------------------------------------!
                     Mulliken Population Analysis

 #  Atom  Element  Kind  Atomic population                           Net charge
       1     He       1          2.000000                              0.000000
 # Total charge                              2.000000                  0.000000

 !-----------------------------------------------------------------------------!

 !-----------------------------------------------------------------------------!
                           Hirshfeld Charges

  #Atom  Element  Kind  Ref Charge     Population                    Net charge
      1       He     1       2.000          2.000                         0.000

  Total Charge                                                            0.000
 !-----------------------------------------------------------------------------!


 RI-RPA section
 --------------

  Used number of processes per group:                                          1
  Maximum allowed memory usage per MPI processes:                     200.00 MiB

  HFX_MEM_INFO| Est. max. program size before HFX [MiB]:                    2733
  HFX_MEM_INFO| Number of cart. primitive ERI's calculated:              2313441
  HFX_MEM_INFO| Number of sph. ERI's calculated:                          810000
  HFX_MEM_INFO| Number of sph. ERI's stored in-core:                      810000
  HFX_MEM_INFO| Number of sph. ERI's stored on disk:                           0
  HFX_MEM_INFO| Number of sph. ERI's calculated on the fly:                    0
  HFX_MEM_INFO| Total memory consumption ERI's RAM [MiB]:                      5
  HFX_MEM_INFO| Whereof max-vals [MiB]:                                        1
  HFX_MEM_INFO| Total compression factor ERI's RAM:                         1.36
  HFX_MEM_INFO| Total memory consumption ERI's disk [MiB]:                     0
  HFX_MEM_INFO| Total compression factor ERI's disk:                        0.00
  HFX_MEM_INFO| Size of density/Fock matrix [MiB]:                             0
  HFX_MEM_INFO| Size of buffers [MiB]:                                         0
  HFX_MEM_INFO| Est. max. program size after HFX  [MiB]:                    2735

  GPW_INFO| Density cutoff [a.u.]:                                         150.0
  GPW_INFO| Relative density cutoff [a.u.]:                                 25.0
  RI_INFO| Cholesky decomposition group size:                                  2
  RI_INFO| Number of groups for auxiliary basis functions                      2
  RI_INFO| Occupied  basis set size:                                           1
  RI_INFO| Virtual   basis set size:                                          29
  RI_INFO| Auxiliary basis set size:                                          91
  RI_INFO| Total memory for (ia|K) integrals:                           0.02 MiB
  RI_INFO| Group size for frequency integration:                               2
  INTEG_INFO| MINIMAX quadrature
  INTEG_INFO| Number of integration points:                                   14
  INTEG_INFO| Number of integration points per RPA group:                     14
  MATRIX_INFO| Number row processes:                                           1
  MATRIX_INFO| Number column processes:                                        2
  MATRIX_INFO| Row block size:                                                14
  MATRIX_INFO| Column block size:                                             22
 Emin =  0.85343701274422856      Emax =   17.541802808894499      Range =   20.554302833068832     
  INTEG_INFO| Range for the minimax approximation:                       20.5543
  INTEG_INFO| Minimax parameters:                    Weights           Abscissas
                                                1.1677976135        0.1449033178
                                                1.2727698046        0.4477107994
                                                1.4945105959        0.7909831697
                                                1.8579207984        1.2067273469
                                                2.4043173022        1.7351300601
                                                3.1981691860        2.4294103953
                                                4.3403222700        3.3630723917
                                                5.9955585746        4.6420016081
                                                8.4564874430        6.4272591872
                                               12.3113877780        8.9844919101
                                               18.9548378803       12.8093231452
                                               32.4934869352       19.0121694846
                                               69.7560162086       30.8804173710
                                              268.0323066779       64.8653494685
  INTEG_INFO| Range for the minimax approximation:                       20.5543
  INTEG_INFO| Gap:                                                        0.8534
  INTEG_INFO| Minimax parameters of the time grid:   Weights           Abscissas
                                                0.0179741650        0.0069862838
                                                0.0427586253        0.0372111522
                                                0.0699342600        0.0932933535
                                                0.1012820945        0.1784626300
                                                0.1393093982        0.2980724020
                                                0.1875732939        0.4604778228
                                                0.2510540475        0.6782711163
                                                0.3365727232        0.9699047595
                                                0.4534893159        1.3618391671
                                                0.6153114205        1.8917687500
                                                0.8436936738        2.6144607410
                                                1.1795120087        3.6144440615
                                                1.7221254260        5.0403633028
                                                2.8623732645        7.2415396740
 
 tau scaled:   8.1860567762426679E-003   4.3601521485463340E-002  0.10931486697087547       0.20911048778954908       0.34926116110103628       0.53955689282341257       0.79475240249322532        1.1364690597899580        1.5957113961314198        2.2166471828370926        3.0634489739185158        4.2351620652825552        5.9059581756019019        8.4851483658550499     
 
 
 omega scaled:  0.12366585469626680       0.38209296718803815       0.67505431344026567        1.0298657821659756        1.4808242152262630        2.0733487504842474        2.8701704556525187        3.9616559855951992        5.4852608808698200        7.6676979367900291        10.931950480355761        16.225689130714358        26.354491153442190        55.358490080992304     
 
 
 weights_cos_tf_t_to_w
   4.2159911142037133E-002   4.2013246013905159E-002   4.2286590167449789E-002   4.1918183099226007E-002   4.2349108474399481E-002   4.1881906845654404E-002   4.2367644463597420E-002   4.1874089968818501E-002   4.2369114326745540E-002   4.1873089160889866E-002   4.2389672807448688E-002   4.1769106129200005E-002   4.2811830693651423E-002   3.9239332894107935E-002  0.10006598432244188       0.10059520738516145        9.9608305535642858E-002  0.10093992972906307        9.9379252955272626E-002  0.10107707052302735        9.9301376559181975E-002  0.10112511332682002        9.9258460933525181E-002  0.10120634763710024        9.8991747027619453E-002  0.10228813763461957        9.0685020087876711E-002   6.4871816708007041E-002  0.16417334267330450       0.16307508267375140       0.16512694233092670       0.16234808861450820       0.16562692403323503       0.16201670681574165       0.16587629238904045       0.16174512637287097       0.16633515283994085       0.16060056800855343       0.17148222486523590       0.18903682686075174       0.14521968133136653        1.7617290826408109E-002  0.23686098519048962       0.23875469041572087       0.23519975158620077       0.24006131436614545       0.23421991502264752       0.24087274085807464       0.23328215032107202       0.24258590725757084       0.22799875774366163        9.6715916053842180E-002  0.24791086453868896       0.21987823968746237       0.12015883448899711       -1.0008295733154392E-002  0.32724078550075386       0.32423560110214816       0.32993835452802522       0.32196222060568119       0.33197364995905115       0.31952943972663977       0.33683694802655623       0.29356971979640445       0.30526521437705745       0.33750333578232783       0.30190850556285598       0.24778705763953571        3.4562239925213477E-002   2.4938368863782509E-003  0.43840111107299490       0.44298973481065990       0.43408167177562390       0.44717090692044914       0.42892898406657165       0.45840833262265773        2.6249532514363964E-002  0.41958758560584669       0.45400509896934321       0.39505092277962783       0.37136412189370549       0.12498393744543464      -0.15531926559923717       -4.6464266068615145E-002  0.59006805302897325       0.58314634866932458       0.59723113993296872       0.57408498471161873       0.61810602785336943       0.75877001822793289       0.56455329371084617       0.60856292335375006       0.49481814471782520       0.51430065916093526       0.26865277047395630        4.0998879141818032E-002   1.1419020845676739E-002   6.5735030998716735E-004  0.78620168474007979       0.79676770294067156       0.77297390001777377       0.82657700871212259       0.94858645905970307       0.75801847172094672       0.81737609740202255       0.57741063061037634       0.69740821504166084       0.44278099230081669        8.4487322459665004E-002  -1.7976569153925089E-002   2.9364846186020113E-002  -4.3648158511900838E-004   1.0665091049785067        1.0496041202369062        1.0988092876347828        1.3786553191998878        1.0214988174993396        1.1025642211562088       0.60448497286603953       0.94267313774285222       0.65459382771773222       0.15692477502902219      -0.21343728693081071        1.1680007082493938E-002   5.6372568243051591E-003   3.3612890857835192E-004   1.4361937156994098        1.4666644110524731        1.0826626207068208        1.3841806346515879        1.4955967696397234       0.72617294125818299        1.2789253947899644       0.92414397946825788       0.25570640238575298       0.22478944745569765        2.8385774063621329E-002   3.2547742074897509E-002  -4.7635607121690000E-003   2.4503338590519199E-004   1.9866053562691894        1.9094401902888380        1.8823100984389769        2.0471234131680034        1.3213533531248571        1.7499729429774913        1.2748860859685409       0.37915948318450821       0.21747427438123090      -0.43089918916469050        2.2393609564802280E-002   4.3777996675446601E-003  -1.8537254072345079E-003   1.9520185850755941E-004   2.7463497565856283        1.7489967690617465        2.8576506291170656        2.2942649187228339        2.4320954959449290        1.7267242829152771       0.51902757477528250       0.30352102716745788      -0.15208494418876053       -3.8867618452609665E-002  -1.1309694225496389E-002  -3.1321506929754589E-003   1.0015926690346243E-002   4.1931804816649332E-004   4.0814982917938964        4.2154019318654337        3.6667609047744909        3.4783512982510687        2.2560572923745554       0.64383526972922234       0.61493682400627936      -0.44203470133368344       -5.4753030383267953E-002   5.1835290195242620E-002   3.7806163960617964E-002 -0.24959014603680479       -5.5200468899300158E-003   1.4835263246885854E-004   6.4380111356813554        6.2071978611597336        5.2022732589217142        2.5316544038116429       0.69169721921930150      -0.79274545816699882       0.13936521098878571        7.8060300342348177E-002  -2.7180222408029607E-002   1.8405547777505315E-002   6.4193273359358483E-002  -2.5560284850788609E-003  -8.4097266309089453E-004  -2.3770083210084354E-003
 
 weights_cos_tf_w_to_t
   7.9316245416450146E-002   7.9300045954603993E-002   7.9325629265122738E-002   7.9287404804494491E-002   7.9343719130012522E-002   7.9261699479816275E-002   7.9379221815657902E-002   7.9214408470045503E-002   7.9440718278012079E-002   7.9132671629593129E-002   7.9560860438731118E-002   7.8917587792329241E-002   8.0096698255773549E-002   7.6245366654990501E-002   8.6419970021168357E-002   8.6472133945995178E-002   8.6389691022719331E-002   8.6513133733305062E-002   8.6330363273183899E-002   8.6599347743109817E-002   8.6205905771379432E-002   8.6780223815232718E-002   8.5926819202242807E-002   8.7297038306097793E-002   8.4413721851863091E-002   6.1290534822678648E-002   8.9881671484365031E-002   8.0180236651285777E-002  0.10153573225441470       0.10143607414700113       0.10159385322025472       0.10135643314104985       0.10171210556129411       0.10117538536533975       0.10200204614738202       0.10065582635316522       0.10326769943671382        8.5849173783250576E-002   9.7952573819761010E-002  0.10436962672672156        9.2886674262657287E-002   7.9105855390944890E-002  0.12611658450616411       0.12628617099451181       0.12601680252163158       0.12642599810455926       0.12579878537751180       0.12679496906456780       0.12507109478514822       0.12895531861127774       0.14740703745343431       0.12274554084393055       0.12971566437351123       0.10703280871486776       0.10941254319711111        4.8244258178219014E-002  0.16339121808268350       0.16311172275524657       0.16355829167342747       0.16286797027026748       0.16397362258592776       0.16201774091248122       0.16669522716524532       0.18050471348475289       0.15924086695083664       0.16789501968552567       0.11633766801731764       0.14474172218825918        9.2398916345520984E-002   1.7482823879309283E-002  0.21703115962674308       0.21749238516467939       0.21674757665348934       0.21793698325072478       0.21585584435400221       0.22069844555633755       0.24746326874123559       0.21209990289606181       0.22315052822843490       0.12578034449378994       0.19388886855667140       0.13740718489485196        3.5825124059676201E-002  -2.8330047339856428E-002  0.29505669259836070       0.29427802270428000       0.29556028627672193       0.29337901944989470       0.29805952931011814       0.16974383009646257       0.28794267549184949       0.30233543683478664       0.18887225250581915       0.26389166363560390       0.19264679770467852        5.7234770996834383E-002   4.9214854510509137E-002   7.5473343232839085E-003  0.40668311625087356       0.40805719294867809       0.40570873575724764       0.41027691396138988       0.38924704173227603       0.39690055141929387       0.41686347264425017       0.31735112904640395       0.36476310828879432       0.26481417631454240        8.0936626484635163E-002   4.9146413033798249E-002  -5.4885458914718549E-002   6.8162901005455329E-003  0.57525338742081866       0.57264674822660311       0.57744771025949049       0.56413661514792546       0.55334820829407250       0.58741269017427977       0.49899851580887145       0.51291915103914854       0.35950357959994178       0.10602135727825480        7.0132496658844218E-002  -3.9543308884826885E-002  -1.1417663945726611E-002  -4.0601220122783391E-003  0.83418698276955117       0.83973663211528426       0.82764757711141712       0.53513927494572722       0.85672929056771296       0.76436852102708752       0.73787685541305081       0.47769895897610043       0.12930944274102751       0.14710316351315242      -0.23524367409898780       -1.8019362719417495E-002   1.9718555274730643E-002   5.0502646052656671E-003   1.2919693479816234        1.2776605951003019        1.3291751381252455        1.3331796422815765        1.2008721179321076        1.0965828542840999       0.59884483144005263       0.14548699394960857      -0.29841738535978596        3.4208929640240755E-002   2.3892254429389893E-002  -1.0520769213540842E-002   2.9102473909749248E-002   3.5704698583848560E-002   2.1922241923876693        2.2449868014410144        2.5092480782058759        2.0529815043981303        1.6861557725617615       0.63957824588852186       0.16362745697592593       -5.9674124472816420E-002   3.4605174007420594E-002   8.8809229637451970E-002   1.0883448545454835E-002  -6.8490963825771113E-003 -0.45229812291220078       -3.3442136357675419E-003   4.8108032031260963        4.3026496235302600        4.2058439888104440        2.4109046243838441       0.51168753011217916       -1.7993049298800796       0.11230076499959156       0.26577826887405381        4.8755198640946580E-002  -3.9052758771266093E-002  -1.3956019000950174E-002   6.6348089268697674E-002  -3.0252462723508393E-002  -3.3211893901378157E-003   16.962287102212912        11.793413098750699        1.9650386517765464      -0.78462875323157344       0.15072772052792918       -2.3774329593039982        3.1085311853753458E-002  -2.0099566988961200E-002   1.5147338432246258E-002   1.0524243653655761E-002   7.6896775361510461E-003   1.4495404026586776E-002   4.2325754663532326E-003  -4.8775021467686336E-002
[...]
  INTEG_INFO| Maximum deviation of the imag. time fit:                  3.48E-07
  Number of fit points for analytic continuation:                              5

 *** WARNING in rpa_gw.F:497 :: Pade approximation: more parameters than ***
 *** data points. Reset # of parameters.                                 ***

  Number of pade parameters:                                                   5
  MEMORY_INFO| Memory cut:                                                     1
  MEMORY_INFO| Im. time group size for RI functions:                           1
  MEMORY_INFO| Im. time group size for local P matrix:                         1
  SPARSITY_INFO| Eps pgf orb for imaginary time:                        1.00E-30
  SPARSITY_INFO| Eps filter for imaginary time:                         1.00E-30
  SPARSITY_INFO| Second eps filter for imaginary time:                  1.00E-30
  RPA_IM_TIME_INFO| Number of periodic images T for Chi_PQ^T(it):              1
  RPA_IM_TIME_INFO| Number of periodic images T for Chi_PQ^T(it):              1
  RPA_IM_TIME_INFO| Number of periodic images T for Chi_PQ^T(it):              1
  RPA_IM_TIME_INFO| Number of periodic images T for Chi_PQ^T(it):              1
  RPA_IM_TIME_INFO| Number of periodic images T for Chi_PQ^T(it):              1
  RPA_IM_TIME_INFO| Number of periodic images T for Chi_PQ^T(it):              1
  RPA_IM_TIME_INFO| Number of periodic images T for Chi_PQ^T(it):              1
  RPA_IM_TIME_INFO| Number of periodic images T for Chi_PQ^T(it):              1
  RPA_IM_TIME_INFO| Number of periodic images T for Chi_PQ^T(it):              1
  RPA_IM_TIME_INFO| Number of periodic images T for Chi_PQ^T(it):              1
  RPA_IM_TIME_INFO| Number of periodic images T for Chi_PQ^T(it):              1
  RPA_IM_TIME_INFO| Number of periodic images T for Chi_PQ^T(it):              1
  RPA_IM_TIME_INFO| Number of periodic images T for Chi_PQ^T(it):              1
  RPA_IM_TIME_INFO| Number of periodic images T for Chi_PQ^T(it):              1
  
  GW quasiparticle energies
  -------------------------
   
  The GW quasiparticle energies are calculated according to: 
  E_GW = E_SCF + Z * ( Sigc(E_SCF) + Sigx - vxc )
   
  The energy unit of the following table is eV.  Sigc_fit is a very conservative
  estimate of the statistical error of the fitting.
   
            MO      E_SCF       Sigc   Sigc_fit   Sigx-vxc          Z       E_GW
     1 ( occ )    -15.748      1.643      0.000     -9.371      1.000    -23.477
     2 ( vir )      7.475     -0.244      0.000      3.792      1.000     11.023
     3 ( vir )     22.727     -0.995      0.000      6.805      1.000     28.536
     4 ( vir )     22.727     -0.995      0.000      6.805      1.000     28.536
     5 ( vir )     22.727     -0.995      0.000      6.805      1.000     28.536
     6 ( vir )     51.490     -4.296      0.000      8.899      1.000     56.094
     7 ( vir )     95.111      1.291      0.000     10.468      1.000    106.870
     8 ( vir )     95.111      1.291      0.000     10.468      1.000    106.870
     9 ( vir )     95.111      1.291      0.000     10.468      1.000    106.870
    10 ( vir )     95.111      1.291      0.000     10.468      1.000    106.870
    11 ( vir )     95.111      1.291      0.000     10.468      1.000    106.870
   
  GW HOMO-LUMO gap (eV)                                                    34.50
  

  Total RI-RPA Time=                                                   15.694496
  RI-RPA energy  =                                             -0.08051453426514

  Total EXX Time=                                                       9.974405
  EXX energy  =                                                -1.01391859300195

 ENERGY| Total FORCE_EVAL ( QS ) energy (a.u.):               -2.940681373717135


 -------------------------------------------------------------------------------
 -                                                                             -
 -                                DBCSR STATISTICS                             -
 -                                                                             -
 -------------------------------------------------------------------------------
 COUNTER                                    TOTAL       BLAS       SMM       ACC
 flops    30 x    30 x    30               108000     100.0%      0.0%      0.0%
 flops    91 x    91 x    91             21099988     100.0%      0.0%      0.0%
 flops    91 x    30 x    30             50450400     100.0%      0.0%      0.0%
 flops    30 x  1350 x    30             70470000     100.0%      0.0%      0.0%
 flops    30 x  1380 x    30             72036000     100.0%      0.0%      0.0%
 flops    91 x    30 x    91             76516440     100.0%      0.0%      0.0%
 flops    91 x    91 x   450            208681200     100.0%      0.0%      0.0%
 flops inhomo. stacks                       12600     100.0%      0.0%      0.0%
 flops total                       499.374628E+06     100.0%      0.0%      0.0%
 flops max/rank                    324.564028E+06     100.0%      0.0%      0.0%
 matmuls inhomo. stacks                         7     100.0%      0.0%      0.0%
 matmuls total                                571     100.0%      0.0%      0.0%
 number of processed stacks                   571     100.0%      0.0%      0.0%
 average stack size                                     1.0       0.0       0.0
 marketing flops                   499.309184E+06
 -------------------------------------------------------------------------------
 # multiplications                            528
 max memory usage/rank               2.869457E+09
 # max total images/rank                        2
 # max 3D layers                                1
 # MPI messages exchanged                     970
 MPI messages size (bytes):
  total size                         6.524512E+06
  min size                           0.000000E+00
  max size                          66.248000E+03
  average size                       6.726301E+03
 MPI breakdown and total messages size (bytes):
             size <=      128                 485                        0
       128 < size <=     8192                 317                  2233680
      8192 < size <=    32768                 154                  3363360
     32768 < size <=   131072                  14                   927472
    131072 < size <=  4194304                   0                        0
   4194304 < size <= 16777216                   0                        0
  16777216 < size                               0                        0
 -------------------------------------------------------------------------------

 *** WARNING in dbcsr_mm.F:278 :: Using a non-square number of MPI ranks ***
 *** might lead to poor performance. Used ranks: 2 Suggested: 1 4        ***

 -------------------------------------------------------------------------------
 -                                                                             -
 -                      DBCSR MESSAGE PASSING PERFORMANCE                      -
 -                                                                             -
 -------------------------------------------------------------------------------

 ROUTINE             CALLS      AVE VOLUME [Bytes]
 MP_Group               37
 MP_Bcast                8                     12.
 MP_Allreduce         2981                      8.
 MP_Alltoall          2008                   5987.
 MP_Wait             14612
 MP_ISend             3082                   2151.
 MP_IRecv             3082                     33.
 MP_Memory           23964
 -------------------------------------------------------------------------------


 MEMORY| Estimated peak process memory [MiB]                                2825

 -------------------------------------------------------------------------------
 ----                             MULTIGRID INFO                            ----
 -------------------------------------------------------------------------------
 count for grid        1:           1548          cutoff [a.u.]          200.00
 count for grid        2:            290          cutoff [a.u.]           66.67
 count for grid        3:             85          cutoff [a.u.]           22.22
 count for grid        4:              8          cutoff [a.u.]            7.41
 total gridlevel count  :           1931

 -------------------------------------------------------------------------------
 -                                                                             -
 -                         MESSAGE PASSING PERFORMANCE                         -
 -                                                                             -
 -------------------------------------------------------------------------------

 ROUTINE             CALLS      AVE VOLUME [Bytes]
 MP_Group                5
 MP_Bcast              116                2558589.
 MP_Allreduce          406                   4897.
 MP_Sync                70
 MP_Alltoall           212              117517528.
 MP_ISendRecv           86               14262701.
 MP_Wait               304
 MP_comm_split           8
 MP_ISend              276                  40805.
 MP_IRecv              248                  49499.
 -------------------------------------------------------------------------------


 -------------------------------------------------------------------------------
 -                                                                             -
 -                           R E F E R E N C E S                               -
 -                                                                             -
 -------------------------------------------------------------------------------
 
 CP2K version 7.0 (Development Version), the CP2K developers group (2018).
 CP2K is freely available from https://www.cp2k.org/ .

 Schuett, Ole; Messmer, Peter; Hutter, Juerg; VandeVondele, Joost. 
 Electronic Structure Calculations on Graphics Processing Units, John Wiley & Sons, Ltd, 173-190 (2016). 
 GPU-Accelerated Sparse Matrix-Matrix Multiplication for Linear Scaling Density Functional Theory.
 https://dx.doi.org/10.1002/9781118670712.ch8


 Del Ben, M; Schuett, O; Wentz, T; Messmer, P; Hutter, J;
 VandeVondele, J. 
 COMPUTER PHYSICS COMMUNICATIONS, 187, 120-129 (2015). 
 Enabling simulation at the fifth rung of DFT: Large scale RPA
 calculations with excellent time to solution.
 https://dx.doi.org/10.1016/j.cpc.2014.10.021


 Borstnik, U; VandeVondele, J; Weber, V; Hutter, J. 
 PARALLEL COMPUTING, 40 (5-6), 47-58 (2014). 
 Sparse matrix multiplication: The distributed block-compressed sparse
 row library.
 https://dx.doi.org/10.1016/j.parco.2014.03.012


 Hutter, J; Iannuzzi, M; Schiffmann, F; VandeVondele, J. 
 WILEY INTERDISCIPLINARY REVIEWS-COMPUTATIONAL MOLECULAR SCIENCE, 4 (1), 15-25 (2014). 
 CP2K: atomistic simulations of condensed matter systems.
 https://dx.doi.org/10.1002/wcms.1159


 Del Ben, M; Hutter, J; VandeVondele, J. 
 JOURNAL OF CHEMICAL THEORY AND COMPUTATION, 9 (6), 2654-2671 (2013). 
 Electron Correlation in the Condensed Phase from a Resolution of
 Identity Approach Based on the Gaussian and Plane Waves Scheme.
 https://dx.doi.org/10.1021/ct4002202


 Del Ben, M; Hutter, J; VandeVondele, J. 
 JOURNAL OF CHEMICAL THEORY AND COMPUTATION, 8 (11), 4177-4188 (2012). 
 Second-Order Moller-Plesset Perturbation Theory in the Condensed Phase:
 An Efficient and Massively Parallel Gaussian and Plane Waves Approach.
 https://dx.doi.org/10.1021/ct300531w


 Guidon, M; Hutter, J; VandeVondele, J. 
 JOURNAL OF CHEMICAL THEORY AND COMPUTATION, 5 (11), 3010-3021 (2009). 
 Robust Periodic Hartree-Fock Exchange for Large-Scale Simulations Using
 Gaussian Basis Sets.
 https://dx.doi.org/10.1021/ct900494g


 Guidon, M; Schiffmann, F; Hutter, J; VandeVondele, J. 
 JOURNAL OF CHEMICAL PHYSICS, 128 (21), 214104 (2008). 
 Ab initio molecular dynamics using hybrid density functionals.
 https://dx.doi.org/10.1063/1.2931945


 Frigo, M; Johnson, SG. 
 PROCEEDINGS OF THE IEEE, 93 (2), 216-231 (2005). 
 The design and implementation of FFTW3.
 https://dx.doi.org/10.1109/JPROC.2004.840301


 Lippert, G; Hutter, J; Parrinello, M. 
 THEORETICAL CHEMISTRY ACCOUNTS, 103 (2), 124-140 (1999). 
 The Gaussian and augmented-plane-wave density functional method for ab
 initio molecular dynamics simulations.
 https://dx.doi.org/10.1007/s002140050523


 Krack, M; Parrinello, M. 
 PHYSICAL CHEMISTRY CHEMICAL PHYSICS, 2 (10), 2105-2112 (2000). 
 All-electron ab-initio molecular dynamics.
 https://dx.doi.org/10.1039/b001167n


 Martyna, GJ; Tuckerman, ME. 
 JOURNAL OF CHEMICAL PHYSICS, 110 (6), 2810-2821 (1999). 
 A reciprocal space based method for treating long range interactions in
 ab initio and force-field-based calculations in clusters.
 https://dx.doi.org/10.1063/1.477923


 Perdew, JP; Burke, K; Ernzerhof, M. 
 PHYSICAL REVIEW LETTERS, 77 (18), 3865-3868 (1996). 
 Generalized gradient approximation made simple.
 https://dx.doi.org/10.1103/PhysRevLett.77.3865


 -------------------------------------------------------------------------------
 -                                                                             -
 -                                T I M I N G                                  -
 -                                                                             -
 -------------------------------------------------------------------------------
 SUBROUTINE                       CALLS  ASD         SELF TIME        TOTAL TIME
                                MAXIMUM       AVERAGE  MAXIMUM  AVERAGE  MAXIMUM
 CP2K                                 1  1.0    0.211    0.348  296.842  296.843
 qs_energies                          1  2.0    0.000    0.000  275.597  275.597
 scf_env_do_scf                       1  3.0    0.000    0.000  240.701  240.702
 scf_env_do_scf_inner_loop            7  4.0    0.002    0.002  240.701  240.701
 pw_transfer                        165  9.4    0.031    0.032  213.903  218.009
 fft_wrap_pw1pw2                    139 10.6    0.006    0.006  212.225  216.267
 qs_ks_build_kohn_sham_matrix         8  6.8    0.005    0.005  209.958  209.959
 qs_ks_update_qs_env                  7  5.0    0.000    0.000  200.710  200.710
 rebuild_ks_matrix                    7  6.0    0.000    0.000  200.709  200.710
 fft_wrap_pw1pw2_200                 90 11.7   10.565   11.318  193.554  196.708
 fft3d_ps                           139 12.6   83.694   90.791  121.977  126.007
 qs_vxc_create                        8  7.8    0.001    0.001  120.932  120.932
 xc_vxc_pw_create                     7  9.0    1.408    1.457  120.931  120.931
 pw_gather_p                         70 12.2   53.142   57.982   53.142   57.982
 xc_rho_set_and_dset_create           7 10.0    0.572    0.574   48.226   48.469
 qs_rho_update_rho                    8  5.0    0.000    0.000   45.688   45.689
 calculate_rho_elec                   8  6.0    0.295    0.371   45.682   45.683
 density_rs2pw                        8  7.0    0.001    0.002   44.192   44.674
 mp_alltoall_z22v                   139 14.6   27.389   39.656   27.389   39.656
 sum_up_and_integrate                 8  7.8    0.298    0.318   27.933   27.966
 pw_scatter_p                        69 13.0   25.696   27.918   25.696   27.918
 integrate_v_rspace                   8  8.8    0.032    0.064   27.635   27.688
 potential_pw2rs                      8  9.8    0.052    0.057   27.601   27.621
 yz_to_x                             70 13.2    5.666    6.325   20.137   26.179
 mp2_main                             1  3.0    0.000    0.001   25.677   25.682
 prepare_gapw_den                     8  7.8    0.000    0.000   23.167   24.222
 put_rho0_on_grid                     8  8.8    0.252    0.269   23.049   24.104
 x_to_yz                             69 14.0    5.218    5.696   18.136   23.223
 qs_init_subsys                       1  2.0    0.003    0.003   20.645   20.646
 qs_env_setup                         1  3.0    0.000    0.000   20.588   20.600
 qs_env_rebuild_pw_env                2  3.5    0.000    0.000   20.587   20.600
 pw_env_rebuild                       1  5.0    0.001    0.001   20.587   20.600
 pw_grid_setup                        5  6.0    0.000    0.000   20.568   20.568
 pw_grid_setup_internal               5  7.0    0.112    0.115   20.568   20.568
 pw_grid_sort                         5  8.0   10.997   14.757   13.538   18.424
 pw_poisson_solve                     9  7.3    3.501    3.745   16.699   16.699
 mp2_gpw_main                         1  4.0    0.000    0.001   15.694   15.694
 rpa_ri_compute_en                    1  5.0    0.000    0.000   15.037   15.037
 rpa_num_int                          1  6.0    0.001    0.002   15.036   15.036
 rs_pw_transfer                      82  9.3    0.005    0.005   13.211   13.292
 mp_sum_d                           828  5.6    7.007   12.584    7.007   12.584
 pw_poisson_rebuild                   9  8.3    0.094    0.145    8.788   11.198
 MTin_create_screen_fn                1 10.0    0.113    0.124    8.694   11.053
 pw_grid_remap                        5  8.0    0.220    0.296    5.340   10.380
 mp_sum_im3                          64  9.4    5.121   10.237    5.121   10.237
 compute_vec_Sigma_x_minus_vxc_       1  4.0    0.000    0.000    9.974    9.974
 fft_wrap_pw1pw2_70                  16 11.4    0.357    0.379    9.125    9.972
 fft_wrap_pw1pw2_400                  1 13.0    0.394    0.624    7.499    9.654
 rs_pw_transfer_RS2PW_200            17  9.8    5.278    5.852    6.757    6.845
 pw_derive                           42 10.5    6.411    6.720    6.411    6.720
 -------------------------------------------------------------------------------

 The number of warnings for this run is : 3
 
 -------------------------------------------------------------------------------
  **** **** ******  **  PROGRAM ENDED AT                 2019-05-31 00:54:03.845
 ***** ** ***  *** **   PROGRAM RAN ON                                    tcopt4
 **    ****   ******    PROGRAM RAN BY                                   wilhelm
 ***** **    ** ** **   PROGRAM PROCESS ID                                 18466
  **** **  *******  **  PROGRAM STOPPED IN /data/wilhelm/2_job_test/11_GW100/3_c
                                           alcs/01_He
