 DBCSR| CPU Multiplication driver                                           BLAS
 DBCSR| Multrec recursion limit                                              512
 DBCSR| Multiplication stack size                                           1000
 DBCSR| Maximum elements for images                                    UNLIMITED
 DBCSR| Multiplicative factor virtual images                                   1
 DBCSR| Use multiplication densification                                       T
 DBCSR| Multiplication size stacks                                             3
 DBCSR| Number of 3D layers                                               SINGLE
 DBCSR| Use MPI memory allocation                                              T
 DBCSR| Use RMA algorithm                                                      F
 DBCSR| Use Communication thread                                               T
 DBCSR| Communication thread load                                             87


  **** **** ******  **  PROGRAM STARTED AT               2019-06-07 18:35:18.406
 ***** ** ***  *** **   PROGRAM STARTED ON                                tcopt4
 **    ****   ******    PROGRAM STARTED BY                               wilhelm
 ***** **    ** ** **   PROGRAM PROCESS ID                                 92794
  **** **  *******  **  PROGRAM STARTED IN /data/wilhelm/2_job_test/11_GW100/3_c
                                           alcs/63_MgCl2

 CP2K| version string:                    CP2K version 7.0 (Development Version)
 CP2K| source code revision number:                                  git:bc2813a
 CP2K| cp2kflags: libint fftw3 libxc pexsi elpa=201705 parallel mpi3 scalapack q
 CP2K|            uip libderiv_max_am1=5 libint_max_am=6
 CP2K| is freely available from                            https://www.cp2k.org/
 CP2K| Program compiled at                         Sun Jun  2 14:38:23 CEST 2019
 CP2K| Program compiled on                                                tcopt4
 CP2K| Program compiled for                            local_valgrind_March_2019
 CP2K| Data directory path              /data/wilhelm/1_git_repository/cp2k/data
 CP2K| Input file name                                                    GW.inp

 GLOBAL| Force Environment number                                              1
 GLOBAL| Basis set file name                              BASIS_def2_QZVP_RI_ALL
 GLOBAL| Potential file name                                           POTENTIAL
 GLOBAL| MM Potential file name                                     MM_POTENTIAL
 GLOBAL| Coordinate file name                                       63_MgCl2.xyz
 GLOBAL| Method name                                                        CP2K
 GLOBAL| Project name                                                   ALL_ELEC
 GLOBAL| Preferred FFT library                                             FFTW3
 GLOBAL| Preferred diagonalization lib.                                       SL
 GLOBAL| Run type                                                         ENERGY
 GLOBAL| All-to-all communication in single precision                          F
 GLOBAL| FFTs using library dependent lengths                                  F
 GLOBAL| Global print level                                               MEDIUM
 GLOBAL| MPI I/O enabled                                                       T
 GLOBAL| Total number of message passing processes                            24
 GLOBAL| Number of threads for this process                                    1
 GLOBAL| This output is from process                                           0
 GLOBAL| CPU model name :  Intel(R) Xeon(R) CPU E5-2697 v3 @ 2.60GHz

 MEMORY| system memory details [Kb]
 MEMORY|                        rank 0           min           max       average
 MEMORY| MemTotal            396954008     396954008     396954008     396954008
 MEMORY| MemFree             340964612     340964572     340964612     340964575
 MEMORY| Buffers                338400        338400        338400        338400
 MEMORY| Cached               41392948      41392640      41392948      41392665
 MEMORY| Slab                  1445300       1444920       1445300       1444951
 MEMORY| SReclaimable          1302132       1301984       1302132       1301996
 MEMORY| MemLikelyFree       383998092     383997596     383998092     383997637


 *** Fundamental physical constants (SI units) ***

 *** Literature: B. J. Mohr and B. N. Taylor,
 ***             CODATA recommended values of the fundamental physical
 ***             constants: 2006, Web Version 5.1
 ***             http://physics.nist.gov/constants

 Speed of light in vacuum [m/s]                             2.99792458000000E+08
 Magnetic constant or permeability of vacuum [N/A**2]       1.25663706143592E-06
 Electric constant or permittivity of vacuum [F/m]          8.85418781762039E-12
 Planck constant (h) [J*s]                                  6.62606896000000E-34
 Planck constant (h-bar) [J*s]                              1.05457162825177E-34
 Elementary charge [C]                                      1.60217648700000E-19
 Electron mass [kg]                                         9.10938215000000E-31
 Electron g factor [ ]                                     -2.00231930436220E+00
 Proton mass [kg]                                           1.67262163700000E-27
 Fine-structure constant                                    7.29735253760000E-03
 Rydberg constant [1/m]                                     1.09737315685270E+07
 Avogadro constant [1/mol]                                  6.02214179000000E+23
 Boltzmann constant [J/K]                                   1.38065040000000E-23
 Atomic mass unit [kg]                                      1.66053878200000E-27
 Bohr radius [m]                                            5.29177208590000E-11

 *** Conversion factors ***

 [u] -> [a.u.]                                              1.82288848426455E+03
 [Angstrom] -> [Bohr] = [a.u.]                              1.88972613288564E+00
 [a.u.] = [Bohr] -> [Angstrom]                              5.29177208590000E-01
 [a.u.] -> [s]                                              2.41888432650478E-17
 [a.u.] -> [fs]                                             2.41888432650478E-02
 [a.u.] -> [J]                                              4.35974393937059E-18
 [a.u.] -> [N]                                              8.23872205491840E-08
 [a.u.] -> [K]                                              3.15774647902944E+05
 [a.u.] -> [kJ/mol]                                         2.62549961709828E+03
 [a.u.] -> [kcal/mol]                                       6.27509468713739E+02
 [a.u.] -> [Pa]                                             2.94210107994716E+13
 [a.u.] -> [bar]                                            2.94210107994716E+08
 [a.u.] -> [atm]                                            2.90362800883016E+08
 [a.u.] -> [eV]                                             2.72113838565563E+01
 [a.u.] -> [Hz]                                             6.57968392072181E+15
 [a.u.] -> [1/cm] (wave numbers)                            2.19474631370540E+05
 [a.u./Bohr**2] -> [1/cm]                                   5.14048714338585E+03
 

 CELL_TOP| Volume [angstrom^3]:                                         4096.000
 CELL_TOP| Vector a [angstrom    16.000     0.000     0.000    |a| =      16.000
 CELL_TOP| Vector b [angstrom     0.000    16.000     0.000    |b| =      16.000
 CELL_TOP| Vector c [angstrom     0.000     0.000    16.000    |c| =      16.000
 CELL_TOP| Angle (b,c), alpha [degree]:                                   90.000
 CELL_TOP| Angle (a,c), beta  [degree]:                                   90.000
 CELL_TOP| Angle (a,b), gamma [degree]:                                   90.000
 CELL_TOP| Numerically orthorhombic:                                         YES

 GENERATE|  Preliminary Number of Bonds generated:                             0
 GENERATE|  Achieved consistency in connectivity generation.

 CELL| Volume [angstrom^3]:                                             4096.000
 CELL| Vector a [angstrom]:      16.000     0.000     0.000    |a| =      16.000
 CELL| Vector b [angstrom]:       0.000    16.000     0.000    |b| =      16.000
 CELL| Vector c [angstrom]:       0.000     0.000    16.000    |c| =      16.000
 CELL| Angle (b,c), alpha [degree]:                                       90.000
 CELL| Angle (a,c), beta  [degree]:                                       90.000
 CELL| Angle (a,b), gamma [degree]:                                       90.000
 CELL| Numerically orthorhombic:                                             YES

 CELL_REF| Volume [angstrom^3]:                                         4096.000
 CELL_REF| Vector a [angstrom    16.000     0.000     0.000    |a| =      16.000
 CELL_REF| Vector b [angstrom     0.000    16.000     0.000    |b| =      16.000
 CELL_REF| Vector c [angstrom     0.000     0.000    16.000    |c| =      16.000
 CELL_REF| Angle (b,c), alpha [degree]:                                   90.000
 CELL_REF| Angle (a,c), beta  [degree]:                                   90.000
 CELL_REF| Angle (a,b), gamma [degree]:                                   90.000
 CELL_REF| Numerically orthorhombic:                                         YES

 *******************************************************************************
 *******************************************************************************
 **                                                                           **
 **     #####                         ##              ##                      **
 **    ##   ##            ##          ##              ##                      **
 **   ##     ##                       ##            ######                    **
 **   ##     ##  ##   ##  ##   #####  ##  ##   ####   ##    #####    #####    **
 **   ##     ##  ##   ##  ##  ##      ## ##   ##      ##   ##   ##  ##   ##   **
 **   ##  ## ##  ##   ##  ##  ##      ####     ###    ##   ######   ######    **
 **    ##  ###   ##   ##  ##  ##      ## ##      ##   ##   ##       ##        **
 **     #######   #####   ##   #####  ##  ##  ####    ##    #####   ##        **
 **           ##                                                    ##        **
 **                                                                           **
 **                                                ... make the atoms dance   **
 **                                                                           **
 **            Copyright (C) by CP2K developers group (2000 - 2019)           **
 **                                                                           **
 *******************************************************************************

 DFT| Spin restricted Kohn-Sham (RKS) calculation                            RKS
 DFT| Multiplicity                                                             1
 DFT| Number of spin states                                                    1
 DFT| Charge                                                                   0
 DFT| Self-interaction correction (SIC)                                       NO
 DFT| Cutoffs: density                                              1.000000E-10
 DFT|          gradient                                             1.000000E-10
 DFT|          tau                                                  1.000000E-10
 DFT|          cutoff_smoothing_range                               0.000000E+00
 DFT| XC density smoothing                                                  NONE
 DFT| XC derivatives                                                          PW
 FUNCTIONAL| ROUTINE=NEW
 FUNCTIONAL| PBE:
 FUNCTIONAL| J.P.Perdew, K.Burke, M.Ernzerhof, Phys. Rev. Letter, vol. 77, n 18,
 FUNCTIONAL|  pp. 3865-3868, (1996){spin unpolarized}                           

 QS| Method:                                                                GAPW
 QS| Density plane wave grid type                        NON-SPHERICAL FULLSPACE
 QS| Number of grid levels:                                                    4
 QS| Density cutoff [a.u.]:                                                200.0
 QS| Multi grid cutoff [a.u.]: 1) grid level                               200.0
 QS|                           2) grid level                                66.7
 QS|                           3) grid level                                22.2
 QS|                           4) grid level                                 7.4
 QS| Grid level progression factor:                                          3.0
 QS| Relative density cutoff [a.u.]:                                        25.0
 QS| Consistent realspace mapping and integration 
 QS| Interaction thresholds: eps_pgf_orb:                                1.0E-05
 QS|                         eps_filter_matrix:                          0.0E+00
 QS|                         eps_core_charge:                            1.0E-12
 QS|                         eps_rho_gspace:                             1.0E-10
 QS|                         eps_rho_rspace:                             1.0E-10
 QS|                         eps_gvg_rspace:                             1.0E-05
 QS|                         eps_ppl:                                    1.0E-02
 QS|                         eps_ppnl:                                   1.0E-07
 QS| GAPW|                   eps_fit:                                    1.0E-04
 QS| GAPW|                   eps_iso:                                    1.0E-12
 QS| GAPW|                   eps_svd:                                    1.0E-08
 QS| GAPW|                   eps_cpc:                                    1.0E-10
 QS| GAPW|   atom-r-grid: quadrature:                 GC_LOG                        
 QS| GAPW|      atom-s-grid:  max l :                                          8
 QS| GAPW|      max_l_rho0 :                                                   2


 ATOMIC KIND INFORMATION

  1. Atomic kind: Mg                                    Number of atoms:       1

     Orbital Basis Set                                                 def2-QZVP

       Number of orbital shell sets:                                          19
       Number of orbital shells:                                              19
       Number of primitive Cartesian functions:                               37
       Number of Cartesian basis functions:                                   58
       Number of spherical basis functions:                                   51
       Norm type:                                                              2

       Normalised Cartesian orbitals:

                        Set   Shell   Orbital            Exponent    Coefficient

                          1       1    1s           605967.787530       0.257226
                                                     90569.094692       0.482047
                                                     20574.252844       0.835599
                                                      5818.628486       1.366366
                                                      1895.629608       2.127534
                                                       683.459410       3.135466
                                                       266.182198       4.276339
                                                       110.112200       5.096899
                                                        47.777041       4.796221
                                                        21.542166       2.874698

                          2       1    1s              174.121364       0.987018
                                                        53.484972       3.401293
                                                        20.500213       5.290746

                          3       1    1s                9.805683       3.949285

                          4       1    1s                3.540299       1.839459

                          5       1    1s                1.545085       0.987698

                          6       1    1s                0.665402       0.525077

                          7       1    1s                0.143554       0.166216

                          8       1    1s                0.066625       0.093462

                          9       1    1s                0.029773       0.051083

                         10       1    1px             893.204608       2.515826
                                                       211.782583       3.549722
                                                        68.443201       4.502320
                                                        25.727265       4.916948
                                                        10.606634       4.403779
                                                         4.593413       2.897035
                                                         2.010047       1.312849
                                                         0.873848       0.343401
                         10       1    1py             893.204608       2.515826
                                                       211.782583       3.549722
                                                        68.443201       4.502320
                                                        25.727265       4.916948
                                                        10.606634       4.403779
                                                         4.593413       2.897035
                                                         2.010047       1.312849
                                                         0.873848       0.343401
                         10       1    1pz             893.204608       2.515826
                                                       211.782583       3.549722
                                                        68.443201       4.502320
                                                        25.727265       4.916948
                                                        10.606634       4.403779
                                                         4.593413       2.897035
                                                         2.010047       1.312849
                                                         0.873848       0.343401

                         11       1    1px               0.356151       0.392177
                         11       1    1py               0.356151       0.392177
                         11       1    1pz               0.356151       0.392177

                         12       1    1px               0.189960       0.178758
                         12       1    1py               0.189960       0.178758
                         12       1    1pz               0.189960       0.178758

                         13       1    1px               0.074580       0.055554
                         13       1    1py               0.074580       0.055554
                         13       1    1pz               0.074580       0.055554

                         14       1    1px               0.029222       0.017221
                         14       1    1py               0.029222       0.017221
                         14       1    1pz               0.029222       0.017221

                         15       1    1dx2              3.810000      17.101262
                         15       1    1dxy              3.810000      29.620255
                         15       1    1dxz              3.810000      29.620255
                         15       1    1dy2              3.810000      17.101262
                         15       1    1dyz              3.810000      29.620255
                         15       1    1dz2              3.810000      17.101262

                         16       1    1dx2              0.650000       0.774476
                         16       1    1dxy              0.650000       1.341431
                         16       1    1dxz              0.650000       1.341431
                         16       1    1dy2              0.650000       0.774476
                         16       1    1dyz              0.650000       1.341431
                         16       1    1dz2              0.650000       0.774476

                         17       1    1dx2              0.200000       0.098449
                         17       1    1dxy              0.200000       0.170519
                         17       1    1dxz              0.200000       0.170519
                         17       1    1dy2              0.200000       0.098449
                         17       1    1dyz              0.200000       0.170519
                         17       1    1dz2              0.200000       0.098449

                         18       1    1dx2              0.052000       0.009320
                         18       1    1dxy              0.052000       0.016143
                         18       1    1dxz              0.052000       0.016143
                         18       1    1dy2              0.052000       0.009320
                         18       1    1dyz              0.052000       0.016143
                         18       1    1dz2              0.052000       0.009320

                         19       1    1fx3              0.160000       0.023836
                         19       1    1fx2y             0.160000       0.053298
                         19       1    1fx2z             0.160000       0.053298
                         19       1    1fxy2             0.160000       0.053298
                         19       1    1fxyz             0.160000       0.092315
                         19       1    1fxz2             0.160000       0.053298
                         19       1    1fy3              0.160000       0.023836
                         19       1    1fy2z             0.160000       0.053298
                         19       1    1fyz2             0.160000       0.053298
                         19       1    1fz3              0.160000       0.023836

     RI Auxiliary Basis Set                                                RI-5Z

       Number of orbital shell sets:                                          48
       Number of orbital shells:                                              48
       Number of primitive Cartesian functions:                               48
       Number of Cartesian basis functions:                                  335
       Number of spherical basis functions:                                  230
       Norm type:                                                              2

       Normalised Cartesian orbitals:

                        Set   Shell   Orbital            Exponent    Coefficient

                          1       1    1s              540.416000      79.883345

                          2       1    1s              102.127000      22.896311

                          3       1    1s               43.111400      11.990966

                          4       1    1s               13.476700       5.013001

                          5       1    1s                7.375560       3.189748

                          6       1    1s                2.606800       1.462146

                          7       1    1s                1.298970       0.867180

                          8       1    1s                0.584075       0.476169

                          9       1    1s                0.330108       0.310386

                         10       1    1s                0.180505       0.197368

                         11       1    1s                0.119148       0.144536

                         12       1    1s                0.069145       0.096101

                         13       1    1px             123.479000     586.720777
                         13       1    1py             123.479000     586.720777
                         13       1    1pz             123.479000     586.720777

                         14       1    1px              33.483200     114.808432
                         14       1    1py              33.483200     114.808432
                         14       1    1pz              33.483200     114.808432

                         15       1    1px              12.336600      32.955996
                         15       1    1py              12.336600      32.955996
                         15       1    1pz              12.336600      32.955996

                         16       1    1px               5.613380      12.316027
                         16       1    1py               5.613380      12.316027
                         16       1    1pz               5.613380      12.316027

                         17       1    1px               2.423950       4.311165
                         17       1    1py               2.423950       4.311165
                         17       1    1pz               2.423950       4.311165

                         18       1    1px               1.157890       1.712081
                         18       1    1py               1.157890       1.712081
                         18       1    1pz               1.157890       1.712081

                         19       1    1px               0.531815       0.647352
                         19       1    1py               0.531815       0.647352
                         19       1    1pz               0.531815       0.647352

                         20       1    1px               0.293408       0.307808
                         20       1    1py               0.293408       0.307808
                         20       1    1pz               0.293408       0.307808

                         21       1    1px               0.194135       0.183683
                         21       1    1py               0.194135       0.183683
                         21       1    1pz               0.194135       0.183683

                         22       1    1px               0.130156       0.111435
                         22       1    1py               0.130156       0.111435
                         22       1    1pz               0.130156       0.111435

                         23       1    1px               0.084593       0.065029
                         23       1    1py               0.084593       0.065029
                         23       1    1pz               0.084593       0.065029

                         24       1    1dx2             28.354200     573.442535
                         24       1    1dxy             28.354200     993.231605
                         24       1    1dxz             28.354200     993.231605
                         24       1    1dy2             28.354200     573.442535
                         24       1    1dyz             28.354200     993.231605
                         24       1    1dz2             28.354200     573.442535

                         25       1    1dx2              8.248800      66.083542
                         25       1    1dxy              8.248800     114.460052
                         25       1    1dxz              8.248800     114.460052
                         25       1    1dy2              8.248800      66.083542
                         25       1    1dyz              8.248800     114.460052
                         25       1    1dz2              8.248800      66.083542

                         26       1    1dx2              2.956150      10.969347
                         26       1    1dxy              2.956150      18.999466
                         26       1    1dxz              2.956150      18.999466
                         26       1    1dy2              2.956150      10.969347
                         26       1    1dyz              2.956150      18.999466
                         26       1    1dz2              2.956150      10.969347

                         27       1    1dx2              1.287300       2.560643
                         27       1    1dxy              1.287300       4.435164
                         27       1    1dxz              1.287300       4.435164
                         27       1    1dy2              1.287300       2.560643
                         27       1    1dyz              1.287300       4.435164
                         27       1    1dz2              1.287300       2.560643

                         28       1    1dx2              0.583460       0.641105
                         28       1    1dxy              0.583460       1.110426
                         28       1    1dxz              0.583460       1.110426
                         28       1    1dy2              0.583460       0.641105
                         28       1    1dyz              0.583460       1.110426
                         28       1    1dz2              0.583460       0.641105

                         29       1    1dx2              0.344419       0.254866
                         29       1    1dxy              0.344419       0.441441
                         29       1    1dxz              0.344419       0.441441
                         29       1    1dy2              0.344419       0.254866
                         29       1    1dyz              0.344419       0.441441
                         29       1    1dz2              0.344419       0.254866

                         30       1    1dx2              0.222430       0.118576
                         30       1    1dxy              0.222430       0.205380
                         30       1    1dxz              0.222430       0.205380
                         30       1    1dy2              0.222430       0.118576
                         30       1    1dyz              0.222430       0.205380
                         30       1    1dz2              0.222430       0.118576

                         31       1    1dx2              0.151929       0.060853
                         31       1    1dxy              0.151929       0.105400
                         31       1    1dxz              0.151929       0.105400
                         31       1    1dy2              0.151929       0.060853
                         31       1    1dyz              0.151929       0.105400
                         31       1    1dz2              0.151929       0.060853

                         32       1    1dx2              0.091250       0.024935
                         32       1    1dxy              0.091250       0.043189
                         32       1    1dxz              0.091250       0.043189
                         32       1    1dy2              0.091250       0.024935
                         32       1    1dyz              0.091250       0.043189
                         32       1    1dz2              0.091250       0.024935

                         33       1    1fx3              6.950670     115.482043
                         33       1    1fx2y             6.950670     258.225697
                         33       1    1fx2z             6.950670     258.225697
                         33       1    1fxy2             6.950670     258.225697
                         33       1    1fxyz             6.950670     447.260028
                         33       1    1fxz2             6.950670     258.225697
                         33       1    1fy3              6.950670     115.482043
                         33       1    1fy2z             6.950670     258.225697
                         33       1    1fyz2             6.950670     258.225697
                         33       1    1fz3              6.950670     115.482043

                         34       1    1fx3              2.762140      14.479623
                         34       1    1fx2y             2.762140      32.377421
                         34       1    1fx2z             2.762140      32.377421
                         34       1    1fxy2             2.762140      32.377421
                         34       1    1fxyz             2.762140      56.079338
                         34       1    1fxz2             2.762140      32.377421
                         34       1    1fy3              2.762140      14.479623
                         34       1    1fy2z             2.762140      32.377421
                         34       1    1fyz2             2.762140      32.377421
                         34       1    1fz3              2.762140      14.479623

                         35       1    1fx3              1.250720       2.435368
                         35       1    1fx2y             1.250720       5.445649
                         35       1    1fx2z             1.250720       5.445649
                         35       1    1fxy2             1.250720       5.445649
                         35       1    1fxyz             1.250720       9.432141
                         35       1    1fxz2             1.250720       5.445649
                         35       1    1fy3              1.250720       2.435368
                         35       1    1fy2z             1.250720       5.445649
                         35       1    1fyz2             1.250720       5.445649
                         35       1    1fz3              1.250720       2.435368

                         36       1    1fx3              0.575997       0.425500
                         36       1    1fx2y             0.575997       0.951448
                         36       1    1fx2z             0.575997       0.951448
                         36       1    1fxy2             0.575997       0.951448
                         36       1    1fxyz             0.575997       1.647956
                         36       1    1fxz2             0.575997       0.951448
                         36       1    1fy3              0.575997       0.425500
                         36       1    1fy2z             0.575997       0.951448
                         36       1    1fyz2             0.575997       0.951448
                         36       1    1fz3              0.575997       0.425500

                         37       1    1fx3              0.334257       0.125065
                         37       1    1fx2y             0.334257       0.279654
                         37       1    1fx2z             0.334257       0.279654
                         37       1    1fxy2             0.334257       0.279654
                         37       1    1fxyz             0.334257       0.484374
                         37       1    1fxz2             0.334257       0.279654
                         37       1    1fy3              0.334257       0.125065
                         37       1    1fy2z             0.334257       0.279654
                         37       1    1fyz2             0.334257       0.279654
                         37       1    1fz3              0.334257       0.125065

                         38       1    1fx3              0.216355       0.046998
                         38       1    1fx2y             0.216355       0.105091
                         38       1    1fx2z             0.216355       0.105091
                         38       1    1fxy2             0.216355       0.105091
                         38       1    1fxyz             0.216355       0.182023
                         38       1    1fxz2             0.216355       0.105091
                         38       1    1fy3              0.216355       0.046998
                         38       1    1fy2z             0.216355       0.105091
                         38       1    1fyz2             0.216355       0.105091
                         38       1    1fz3              0.216355       0.046998

                         39       1    1fx3              0.126090       0.013947
                         39       1    1fx2y             0.126090       0.031187
                         39       1    1fx2z             0.126090       0.031187
                         39       1    1fxy2             0.126090       0.031187
                         39       1    1fxyz             0.126090       0.054017
                         39       1    1fxz2             0.126090       0.031187
                         39       1    1fy3              0.126090       0.013947
                         39       1    1fy2z             0.126090       0.031187
                         39       1    1fyz2             0.126090       0.031187
                         39       1    1fz3              0.126090       0.013947

                         40       1    1gx4              2.550100      14.603863
                         40       1    1gx3y             2.550100      38.638190
                         40       1    1gx3z             2.550100      38.638190
                         40       1    1gx2y2            2.550100      49.881689
                         40       1    1gx2yz            2.550100      86.397620
                         40       1    1gx2z2            2.550100      49.881689
                         40       1    1gxy3             2.550100      38.638190
                         40       1    1gxy2z            2.550100      86.397620
                         40       1    1gxyz2            2.550100      86.397620
                         40       1    1gxz3             2.550100      38.638190
                         40       1    1gy4              2.550100      14.603863
                         40       1    1gy3z             2.550100      38.638190
                         40       1    1gy2z2            2.550100      49.881689
                         40       1    1gyz3             2.550100      38.638190
                         40       1    1gz4              2.550100      14.603863

                         41       1    1gx4              1.072600       1.349396
                         41       1    1gx3y             1.072600       3.570166
                         41       1    1gx3z             1.072600       3.570166
                         41       1    1gx2y2            1.072600       4.609064
                         41       1    1gx2yz            1.072600       7.983133
                         41       1    1gx2z2            1.072600       4.609064
                         41       1    1gxy3             1.072600       3.570166
                         41       1    1gxy2z            1.072600       7.983133
                         41       1    1gxyz2            1.072600       7.983133
                         41       1    1gxz3             1.072600       3.570166
                         41       1    1gy4              1.072600       1.349396
                         41       1    1gy3z             1.072600       3.570166
                         41       1    1gy2z2            1.072600       4.609064
                         41       1    1gyz3             1.072600       3.570166
                         41       1    1gz4              1.072600       1.349396

                         42       1    1gx4              0.552581       0.217783
                         42       1    1gx3y             0.552581       0.576200
                         42       1    1gx3z             0.552581       0.576200
                         42       1    1gx2y2            0.552581       0.743871
                         42       1    1gx2yz            0.552581       1.288423
                         42       1    1gx2z2            0.552581       0.743871
                         42       1    1gxy3             0.552581       0.576200
                         42       1    1gxy2z            0.552581       1.288423
                         42       1    1gxyz2            0.552581       1.288423
                         42       1    1gxz3             0.552581       0.576200
                         42       1    1gy4              0.552581       0.217783
                         42       1    1gy3z             0.552581       0.576200
                         42       1    1gy2z2            0.552581       0.743871
                         42       1    1gyz3             0.552581       0.576200
                         42       1    1gz4              0.552581       0.217783

                         43       1    1gx4              0.308050       0.043666
                         43       1    1gx3y             0.308050       0.115529
                         43       1    1gx3z             0.308050       0.115529
                         43       1    1gx2y2            0.308050       0.149148
                         43       1    1gx2yz            0.308050       0.258332
                         43       1    1gx2z2            0.308050       0.149148
                         43       1    1gxy3             0.308050       0.115529
                         43       1    1gxy2z            0.308050       0.258332
                         43       1    1gxyz2            0.308050       0.258332
                         43       1    1gxz3             0.308050       0.115529
                         43       1    1gy4              0.308050       0.043666
                         43       1    1gy3z             0.308050       0.115529
                         43       1    1gy2z2            0.308050       0.149148
                         43       1    1gyz3             0.308050       0.115529
                         43       1    1gz4              0.308050       0.043666

                         44       1    1gx4              0.146581       0.005664
                         44       1    1gx3y             0.146581       0.014986
                         44       1    1gx3z             0.146581       0.014986
                         44       1    1gx2y2            0.146581       0.019347
                         44       1    1gx2yz            0.146581       0.033511
                         44       1    1gx2z2            0.146581       0.019347
                         44       1    1gxy3             0.146581       0.014986
                         44       1    1gxy2z            0.146581       0.033511
                         44       1    1gxyz2            0.146581       0.033511
                         44       1    1gxz3             0.146581       0.014986
                         44       1    1gy4              0.146581       0.005664
                         44       1    1gy3z             0.146581       0.014986
                         44       1    1gy2z2            0.146581       0.019347
                         44       1    1gyz3             0.146581       0.014986
                         44       1    1gz4              0.146581       0.005664

                         45       1    1hx5              1.512580       2.847271
                         45       1    1hx4y             1.512580       8.541813
                         45       1    1hx4z             1.512580       8.541813
                         45       1    1hx3y2            1.512580      13.047835
                         45       1    1hx3yz            1.512580      22.599514
                         45       1    1hx3z2            1.512580      13.047835
                         45       1    1hx2y3            1.512580      13.047835
                         45       1    1hx2y2z           1.512580      29.175846
                         45       1    1hx2yz2           1.512580      29.175846
                         45       1    1hx2z3            1.512580      13.047835
                         45       1    1hxy4             1.512580       8.541813
                         45       1    1hxy3z            1.512580      22.599514
                         45       1    1hxy2z2           1.512580      29.175846
                         45       1    1hxyz3            1.512580      22.599514
                         45       1    1hxz4             1.512580       8.541813
                         45       1    1hy5              1.512580       2.847271
                         45       1    1hy4z             1.512580       8.541813
                         45       1    1hy3z2            1.512580      13.047835
                         45       1    1hy2z3            1.512580      13.047835
                         45       1    1hyz4             1.512580       8.541813
                         45       1    1hz5              1.512580       2.847271

                         46       1    1hx5              0.457920       0.058602
                         46       1    1hx4y             0.457920       0.175805
                         46       1    1hx4z             0.457920       0.175805
                         46       1    1hx3y2            0.457920       0.268547
                         46       1    1hx3yz            0.457920       0.465137
                         46       1    1hx3z2            0.457920       0.268547
                         46       1    1hx2y3            0.457920       0.268547
                         46       1    1hx2y2z           0.457920       0.600489
                         46       1    1hx2yz2           0.457920       0.600489
                         46       1    1hx2z3            0.457920       0.268547
                         46       1    1hxy4             0.457920       0.175805
                         46       1    1hxy3z            0.457920       0.465137
                         46       1    1hxy2z2           0.457920       0.600489
                         46       1    1hxyz3            0.457920       0.465137
                         46       1    1hxz4             0.457920       0.175805
                         46       1    1hy5              0.457920       0.058602
                         46       1    1hy4z             0.457920       0.175805
                         46       1    1hy3z2            0.457920       0.268547
                         46       1    1hy2z3            0.457920       0.268547
                         46       1    1hyz4             0.457920       0.175805
                         46       1    1hz5              0.457920       0.058602

                         47       1    1hx5              0.292537       0.013659
                         47       1    1hx4y             0.292537       0.040978
                         47       1    1hx4z             0.292537       0.040978
                         47       1    1hx3y2            0.292537       0.062595
                         47       1    1hx3yz            0.292537       0.108418
                         47       1    1hx3z2            0.292537       0.062595
                         47       1    1hx2y3            0.292537       0.062595
                         47       1    1hx2y2z           0.292537       0.139967
                         47       1    1hx2yz2           0.292537       0.139967
                         47       1    1hx2z3            0.292537       0.062595
                         47       1    1hxy4             0.292537       0.040978
                         47       1    1hxy3z            0.292537       0.108418
                         47       1    1hxy2z2           0.292537       0.139967
                         47       1    1hxyz3            0.292537       0.108418
                         47       1    1hxz4             0.292537       0.040978
                         47       1    1hy5              0.292537       0.013659
                         47       1    1hy4z             0.292537       0.040978
                         47       1    1hy3z2            0.292537       0.062595
                         47       1    1hy2z3            0.292537       0.062595
                         47       1    1hyz4             0.292537       0.040978
                         47       1    1hz5              0.292537       0.013659

                         48       1    1ix6              1.074570       0.585879
                         48       1    1ix5y             1.074570       1.943141
                         48       1    1ix5z             1.074570       1.943141
                         48       1    1ix4y2            1.074570       3.365619
                         48       1    1ix4yz            1.074570       5.829423
                         48       1    1ix4z2            1.074570       3.365619
                         48       1    1ix3y3            1.074570       3.982254
                         48       1    1ix3y2z           1.074570       8.904591
                         48       1    1ix3yz2           1.074570       8.904591
                         48       1    1ix3z3            1.074570       3.982254
                         48       1    1ix2y4            1.074570       3.365619
                         48       1    1ix2y3z           1.074570       8.904591
                         48       1    1ix2y2z2          1.074570      11.495778
                         48       1    1ix2yz3           1.074570       8.904591
                         48       1    1ix2z4            1.074570       3.365619
                         48       1    1ixy5             1.074570       1.943141
                         48       1    1ixy4z            1.074570       5.829423
                         48       1    1ixy3z2           1.074570       8.904591
                         48       1    1ixy2z3           1.074570       8.904591
                         48       1    1ixyz4            1.074570       5.829423
                         48       1    1ixz5             1.074570       1.943141
                         48       1    1iy6              1.074570       0.585879
                         48       1    1iy5z             1.074570       1.943141
                         48       1    1iy4z2            1.074570       3.365619
                         48       1    1iy3z3            1.074570       3.982254
                         48       1    1iy2z4            1.074570       3.365619
                         48       1    1iyz5             1.074570       1.943141
                         48       1    1iz6              1.074570       0.585879

     The atoms of this atomic kind are PAW atoms (GAPW):
       Hard Gaussian function radius:                                      1.512
       Rho0 radius:                                                        1.512
       Maximum GTO radius used for PAW projector construction:            24.566

     GAPW Soft Basis Set                                          def2-QZVP_soft

       Number of orbital shell sets:                                          19
       Number of orbital shells:                                              19
       Number of primitive Cartesian functions:                               17
       Number of Cartesian basis functions:                                   58
       Number of spherical basis functions:                                   51
       Norm type:                                                              2

       Normalised Cartesian orbitals:

                        Set   Shell   Orbital            Exponent    Coefficient

                          1       1    1s         

                          2       1    1s         

                          3       1    1s         

                          4       1    1s                3.540299       1.839459

                          5       1    1s                1.545085       0.987698

                          6       1    1s                0.665402       0.525077

                          7       1    1s                0.143554       0.166216

                          8       1    1s                0.066625       0.093462

                          9       1    1s                0.029773       0.051083

                         10       1    1px               2.010047       1.312849
                                                         0.873848       0.343401
                         10       1    1py               2.010047       1.312849
                                                         0.873848       0.343401
                         10       1    1pz               2.010047       1.312849
                                                         0.873848       0.343401

                         11       1    1px               0.356151       0.392177
                         11       1    1py               0.356151       0.392177
                         11       1    1pz               0.356151       0.392177

                         12       1    1px               0.189960       0.178758
                         12       1    1py               0.189960       0.178758
                         12       1    1pz               0.189960       0.178758

                         13       1    1px               0.074580       0.055554
                         13       1    1py               0.074580       0.055554
                         13       1    1pz               0.074580       0.055554

                         14       1    1px               0.029222       0.017221
                         14       1    1py               0.029222       0.017221
                         14       1    1pz               0.029222       0.017221

                         15       1    1dx2              3.810000      17.101262
                         15       1    1dxy              3.810000      29.620255
                         15       1    1dxz              3.810000      29.620255
                         15       1    1dy2              3.810000      17.101262
                         15       1    1dyz              3.810000      29.620255
                         15       1    1dz2              3.810000      17.101262

                         16       1    1dx2              0.650000       0.774476
                         16       1    1dxy              0.650000       1.341431
                         16       1    1dxz              0.650000       1.341431
                         16       1    1dy2              0.650000       0.774476
                         16       1    1dyz              0.650000       1.341431
                         16       1    1dz2              0.650000       0.774476

                         17       1    1dx2              0.200000       0.098449
                         17       1    1dxy              0.200000       0.170519
                         17       1    1dxz              0.200000       0.170519
                         17       1    1dy2              0.200000       0.098449
                         17       1    1dyz              0.200000       0.170519
                         17       1    1dz2              0.200000       0.098449

                         18       1    1dx2              0.052000       0.009320
                         18       1    1dxy              0.052000       0.016143
                         18       1    1dxz              0.052000       0.016143
                         18       1    1dy2              0.052000       0.009320
                         18       1    1dyz              0.052000       0.016143
                         18       1    1dz2              0.052000       0.009320

                         19       1    1fx3              0.160000       0.023836
                         19       1    1fx2y             0.160000       0.053298
                         19       1    1fx2z             0.160000       0.053298
                         19       1    1fxy2             0.160000       0.053298
                         19       1    1fxyz             0.160000       0.092315
                         19       1    1fxz2             0.160000       0.053298
                         19       1    1fy3              0.160000       0.023836
                         19       1    1fy2z             0.160000       0.053298
                         19       1    1fyz2             0.160000       0.053298
                         19       1    1fz3              0.160000       0.023836

     AE Potential information for                                            ALL

       Description:                                       All-electron potential
                                          Krack, Parrinello, PCCP 2, 2105 (2000)

       Gaussian exponent of the core charge distribution:              11.236029
       Electronic configuration (s p d ...):                           6   6   0

  2. Atomic kind: Cl                                    Number of atoms:       2

     Orbital Basis Set                                                 def2-QZVP

       Number of orbital shell sets:                                          22
       Number of orbital shells:                                              22
       Number of primitive Cartesian functions:                               41
       Number of Cartesian basis functions:                                   86
       Number of spherical basis functions:                                   70
       Norm type:                                                              2

       Normalised Cartesian orbitals:

                        Set   Shell   Orbital            Exponent    Coefficient

                          1       1    1s          1467459.009500       0.425773
                                                    219756.164330       0.796829
                                                     50010.770301       1.380227
                                                     14164.823918       2.257494
                                                      4620.746552       3.521527
                                                      1667.899163       5.224536
                                                       650.291993       7.246291
                                                       269.380374       8.968589
                                                       117.067521       9.076269
                                                        52.811767       6.264795

                          2       1    1s              461.427700       1.611036
                                                       142.126654       6.095348
                                                        54.437839      11.498871

                          3       1    1s               24.160770       7.766819

                          4       1    1s                9.708354       3.919849

                          5       1    1s                4.564070       2.225483

                          6       1    1s                2.119474       1.251933

                          7       1    1s                0.757224       0.578533

                          8       1    1s                0.337472       0.315565

                          9       1    1s                0.138608       0.161901

                         10       1    1px            2501.945789       6.358182
                                                       592.880593       9.140815
                                                       192.180892      12.125297
                                                        72.875710      14.188254
                                                        30.436358      13.984205
                                                        13.490179      10.535628
                                                         6.147807       5.502251
                                                         2.845094       1.581259
                         10       1    1py            2501.945789       6.358182
                                                       592.880593       9.140815
                                                       192.180892      12.125297
                                                        72.875710      14.188254
                                                        30.436358      13.984205
                                                        13.490179      10.535628
                                                         6.147807       5.502251
                                                         2.845094       1.581259
                         10       1    1pz            2501.945789       6.358182
                                                       592.880593       9.140815
                                                       192.180892      12.125297
                                                        72.875710      14.188254
                                                        30.436358      13.984205
                                                        13.490179      10.535628
                                                         6.147807       5.502251
                                                         2.845094       1.581259

                         11       1    1px             105.393979     -25.961556
                                                         6.736974      15.579070
                         11       1    1py             105.393979     -25.961556
                                                         6.736974      15.579070
                         11       1    1pz             105.393979     -25.961556
                                                         6.736974      15.579070

                         12       1    1px               1.242110       1.869132
                         12       1    1py               1.242110       1.869132
                         12       1    1pz               1.242110       1.869132

                         13       1    1px               0.556697       0.685431
                         13       1    1py               0.556697       0.685431
                         13       1    1pz               0.556697       0.685431

                         14       1    1px               0.233878       0.231834
                         14       1    1py               0.233878       0.231834
                         14       1    1pz               0.233878       0.231834

                         15       1    1px               0.093164       0.073367
                         15       1    1py               0.093164       0.073367
                         15       1    1pz               0.093164       0.073367

                         16       1    1dx2              5.191000      29.383177
                         16       1    1dxy              5.191000      50.893156
                         16       1    1dxz              5.191000      50.893156
                         16       1    1dy2              5.191000      29.383177
                         16       1    1dyz              5.191000      50.893156
                         16       1    1dz2              5.191000      29.383177

                         17       1    1dx2              1.276000       2.521437
                         17       1    1dxy              1.276000       4.367257
                         17       1    1dxz              1.276000       4.367257
                         17       1    1dy2              1.276000       2.521437
                         17       1    1dyz              1.276000       4.367257
                         17       1    1dz2              1.276000       2.521437

                         18       1    1dx2              0.583000       0.640220
                         18       1    1dxy              0.583000       1.108894
                         18       1    1dxz              0.583000       1.108894
                         18       1    1dy2              0.583000       0.640220
                         18       1    1dyz              0.583000       1.108894
                         18       1    1dz2              0.583000       0.640220

                         19       1    1dx2              0.243000       0.138427
                         19       1    1dxy              0.243000       0.239762
                         19       1    1dxz              0.243000       0.239762
                         19       1    1dy2              0.243000       0.138427
                         19       1    1dyz              0.243000       0.239762
                         19       1    1dz2              0.243000       0.138427

                         20       1    1fx3              0.423000       0.212432
                         20       1    1fx2y             0.423000       0.475013
                         20       1    1fx2z             0.423000       0.475013
                         20       1    1fxy2             0.423000       0.475013
                         20       1    1fxyz             0.423000       0.822746
                         20       1    1fxz2             0.423000       0.475013
                         20       1    1fy3              0.423000       0.212432
                         20       1    1fy2z             0.423000       0.475013
                         20       1    1fyz2             0.423000       0.475013
                         20       1    1fz3              0.423000       0.212432

                         21       1    1fx3              1.089000       1.783476
                         21       1    1fx2y             1.089000       3.987973
                         21       1    1fx2z             1.089000       3.987973
                         21       1    1fxy2             1.089000       3.987973
                         21       1    1fxyz             1.089000       6.907371
                         21       1    1fxz2             1.089000       3.987973
                         21       1    1fy3              1.089000       1.783476
                         21       1    1fy2z             1.089000       3.987973
                         21       1    1fyz2             1.089000       3.987973
                         21       1    1fz3              1.089000       1.783476

                         22       1    1gx4              0.827000       0.660048
                         22       1    1gx3y             0.827000       1.746323
                         22       1    1gx3z             0.827000       1.746323
                         22       1    1gx2y2            0.827000       2.254493
                         22       1    1gx2yz            0.827000       3.904897
                         22       1    1gx2z2            0.827000       2.254493
                         22       1    1gxy3             0.827000       1.746323
                         22       1    1gxy2z            0.827000       3.904897
                         22       1    1gxyz2            0.827000       3.904897
                         22       1    1gxz3             0.827000       1.746323
                         22       1    1gy4              0.827000       0.660048
                         22       1    1gy3z             0.827000       1.746323
                         22       1    1gy2z2            0.827000       2.254493
                         22       1    1gyz3             0.827000       1.746323
                         22       1    1gz4              0.827000       0.660048

     RI Auxiliary Basis Set                                                RI-5Z

       Number of orbital shell sets:                                          48
       Number of orbital shells:                                              48
       Number of primitive Cartesian functions:                               48
       Number of Cartesian basis functions:                                  335
       Number of spherical basis functions:                                  230
       Norm type:                                                              2

       Normalised Cartesian orbitals:

                        Set   Shell   Orbital            Exponent    Coefficient

                          1       1    1s             1275.190000     152.086710

                          2       1    1s              308.271000      52.433590

                          3       1    1s              107.711000      23.828963

                          4       1    1s               34.462700      10.137295

                          5       1    1s               14.452900       5.282948

                          6       1    1s                7.544300       3.244325

                          7       1    1s                3.685440       1.895733

                          8       1    1s                1.789660       1.102778

                          9       1    1s                1.072910       0.751333

                         10       1    1s                0.736635       0.566695

                         11       1    1s                0.332604       0.312145

                         12       1    1s                0.183773       0.200042

                         13       1    1px             405.243000    2591.698576
                         13       1    1py             405.243000    2591.698576
                         13       1    1pz             405.243000    2591.698576

                         14       1    1px             117.714000     552.681891
                         14       1    1py             117.714000     552.681891
                         14       1    1pz             117.714000     552.681891

                         15       1    1px              37.138800     130.684753
                         15       1    1py              37.138800     130.684753
                         15       1    1pz              37.138800     130.684753

                         16       1    1px              19.320600      57.738547
                         16       1    1py              19.320600      57.738547
                         16       1    1pz              19.320600      57.738547

                         17       1    1px               8.503760      20.699213
                         17       1    1py               8.503760      20.699213
                         17       1    1pz               8.503760      20.699213

                         18       1    1px               4.262460       8.730025
                         18       1    1py               4.262460       8.730025
                         18       1    1pz               4.262460       8.730025

                         19       1    1px               1.929040       3.240534
                         19       1    1py               1.929040       3.240534
                         19       1    1pz               1.929040       3.240534

                         20       1    1px               1.246920       1.878185
                         20       1    1py               1.246920       1.878185
                         20       1    1pz               1.246920       1.878185

                         21       1    1px               0.739900       0.978152
                         21       1    1py               0.739900       0.978152
                         21       1    1pz               0.739900       0.978152

                         22       1    1px               0.495422       0.592460
                         22       1    1py               0.495422       0.592460
                         22       1    1pz               0.495422       0.592460

                         23       1    1px               0.264132       0.269908
                         23       1    1py               0.264132       0.269908
                         23       1    1pz               0.264132       0.269908

                         24       1    1dx2            118.091000    6962.879136
                         24       1    1dxy            118.091000   12060.060431
                         24       1    1dxz            118.091000   12060.060431
                         24       1    1dy2            118.091000    6962.879136
                         24       1    1dyz            118.091000   12060.060431
                         24       1    1dz2            118.091000    6962.879136

                         25       1    1dx2             39.157400    1008.866472
                         25       1    1dxy             39.157400    1747.407988
                         25       1    1dxz             39.157400    1747.407988
                         25       1    1dy2             39.157400    1008.866472
                         25       1    1dyz             39.157400    1747.407988
                         25       1    1dz2             39.157400    1008.866472

                         26       1    1dx2             13.190700     150.272040
                         26       1    1dxy             13.190700     260.278808
                         26       1    1dxz             13.190700     260.278808
                         26       1    1dy2             13.190700     150.272040
                         26       1    1dyz             13.190700     260.278808
                         26       1    1dz2             13.190700     150.272040

                         27       1    1dx2              6.218710      40.307419
                         27       1    1dxy              6.218710      69.814498
                         27       1    1dxz              6.218710      69.814498
                         27       1    1dy2              6.218710      40.307419
                         27       1    1dyz              6.218710      69.814498
                         27       1    1dz2              6.218710      40.307419

                         28       1    1dx2              2.507050       8.221380
                         28       1    1dxy              2.507050      14.239847
                         28       1    1dxz              2.507050      14.239847
                         28       1    1dy2              2.507050       8.221380
                         28       1    1dyz              2.507050      14.239847
                         28       1    1dz2              2.507050       8.221380

                         29       1    1dx2              1.522240       3.433641
                         29       1    1dxy              1.522240       5.947241
                         29       1    1dxz              1.522240       5.947241
                         29       1    1dy2              1.522240       3.433641
                         29       1    1dyz              1.522240       5.947241
                         29       1    1dz2              1.522240       3.433641

                         30       1    1dx2              0.872617       1.296734
                         30       1    1dxy              0.872617       2.246009
                         30       1    1dxz              0.872617       2.246009
                         30       1    1dy2              0.872617       1.296734
                         30       1    1dyz              0.872617       2.246009
                         30       1    1dz2              0.872617       1.296734

                         31       1    1dx2              0.431274       0.377770
                         31       1    1dxy              0.431274       0.654317
                         31       1    1dxz              0.431274       0.654317
                         31       1    1dy2              0.431274       0.377770
                         31       1    1dyz              0.431274       0.654317
                         31       1    1dz2              0.431274       0.377770

                         32       1    1dx2              0.231014       0.126700
                         32       1    1dxy              0.231014       0.219451
                         32       1    1dxz              0.231014       0.219451
                         32       1    1dy2              0.231014       0.126700
                         32       1    1dyz              0.231014       0.219451
                         32       1    1dz2              0.231014       0.126700

                         33       1    1fx3             21.558400    1474.319577
                         33       1    1fx2y            21.558400    3296.678795
                         33       1    1fx2z            21.558400    3296.678795
                         33       1    1fxy2            21.558400    3296.678795
                         33       1    1fxyz            21.558400    5710.015169
                         33       1    1fxz2            21.558400    3296.678795
                         33       1    1fy3             21.558400    1474.319577
                         33       1    1fy2z            21.558400    3296.678795
                         33       1    1fyz2            21.558400    3296.678795
                         33       1    1fz3             21.558400    1474.319577

                         34       1    1fx3             10.107900     268.189368
                         34       1    1fx2y            10.107900     599.689658
                         34       1    1fx2z            10.107900     599.689658
                         34       1    1fxy2            10.107900     599.689658
                         34       1    1fxyz            10.107900    1038.692957
                         34       1    1fxz2            10.107900     599.689658
                         34       1    1fy3             10.107900     268.189368
                         34       1    1fy2z            10.107900     599.689658
                         34       1    1fyz2            10.107900     599.689658
                         34       1    1fz3             10.107900     268.189368

                         35       1    1fx3              4.921690      53.114308
                         35       1    1fx2y             4.921690     118.767202
                         35       1    1fx2z             4.921690     118.767202
                         35       1    1fxy2             4.921690     118.767202
                         35       1    1fxyz             4.921690     205.710829
                         35       1    1fxz2             4.921690     118.767202
                         35       1    1fy3              4.921690      53.114308
                         35       1    1fy2z             4.921690     118.767202
                         35       1    1fyz2             4.921690     118.767202
                         35       1    1fz3              4.921690      53.114308

                         36       1    1fx3              2.194960       8.633051
                         36       1    1fx2y             2.194960      19.304090
                         36       1    1fx2z             2.194960      19.304090
                         36       1    1fxy2             2.194960      19.304090
                         36       1    1fxyz             2.194960      33.435664
                         36       1    1fxz2             2.194960      19.304090
                         36       1    1fy3              2.194960       8.633051
                         36       1    1fy2z             2.194960      19.304090
                         36       1    1fyz2             2.194960      19.304090
                         36       1    1fz3              2.194960       8.633051

                         37       1    1fx3              1.541620       3.898553
                         37       1    1fx2y             1.541620       8.717430
                         37       1    1fx2z             1.541620       8.717430
                         37       1    1fxy2             1.541620       8.717430
                         37       1    1fxyz             1.541620      15.099031
                         37       1    1fxz2             1.541620       8.717430
                         37       1    1fy3              1.541620       3.898553
                         37       1    1fy2z             1.541620       8.717430
                         37       1    1fyz2             1.541620       8.717430
                         37       1    1fz3              1.541620       3.898553

                         38       1    1fx3              0.806943       0.908554
                         38       1    1fx2y             0.806943       2.031589
                         38       1    1fx2z             0.806943       2.031589
                         38       1    1fxy2             0.806943       2.031589
[...]
         874  0.98921599460618381      ( -8.2279574663879328E-003, -8.5691134591310090E-003)
         875  0.99727829908815668      ( -8.1879763396375729E-003, -8.5803209172254039E-003)
 
 n_level_gw =          14
 AFTER evaluate_pade_function/get_z_and_m_value_pade
 energy_val =  0.20108107226148481     
 nparam_pade =           8
 omega_points_pade = (  0.0000000000000000     ,  9.9999999999999998E-013) (  0.0000000000000000     ,  3.9782473475931619E-002) (  0.0000000000000000     ,  8.2842712474619024E-002) (  0.0000000000000000     , 0.13363572758385980     ) (  0.0000000000000000     , 0.20000000000000004     ) (  0.0000000000000000     , 0.29932115253309782     ) (  0.0000000000000000     , 0.48284271247461907     ) (  0.0000000000000000     , 0.99727829908815668     )
 coeff_pade = ( -1.3356268021832826E-002, -1.8208395607678261E-014) ( -1.3590704019416848     ,  3.2371552922988253E-002) ( 0.62312918067478196     ,-0.19997902617761490     ) (  1.5632242704407897     , 0.78301871371227638     ) (  1.1675662626606547     , -1.9836575827005285     ) (  1.9950150663337001     , -2.0094857016948060     ) ( -3.8762593272366237     , -1.8292958531131525     ) (-0.65191172471838843     ,  3.5019806900647529E-002)
 sigma_c_pade = (-0.48393507597420182     , -7.3989738494699923E-003)
 z_value(n_level_gw) =  0.97464536226225751     
 m_value(n_level_gw) =  -2.6014218832264912E-002
 level_energ_GW =   7.0911637262901298E-002
 
 
 n_level_gw =          14
 AFTER get_sigma_c_newton_pade
 vec_gw_energ(n_level_gw) = -0.52569863359068825     
 Eigenval_scf(n_level_gw_ref) =  0.38970722089657900     
 nparam_pade =           8
 level_energ_GW =   7.0911637262901298E-002
 
  
  GW quasiparticle energies
  -------------------------
   
  The GW quasiparticle energies are calculated according to: 
  E_GW = E_SCF + Z * ( Sigc(E_SCF) + Sigx - vxc )
   
  The energy unit of the following table is eV.  Sigc_fit is a very conservative
  estimate of the statistical error of the fitting.
   
            MO      E_SCF       Sigc   Sigc_fit   Sigx-vxc          Z       E_GW
    14 ( occ )    -48.674      1.872      0.000    -15.443      1.000    -62.245
    15 ( occ )    -48.491      2.101      0.000    -15.616      1.000    -62.006
    16 ( occ )    -19.570      7.288      0.000     -9.116      1.000    -21.399
    17 ( occ )    -19.476      7.256      0.000     -9.097      1.000    -21.317
    18 ( occ )     -9.120      1.332      0.000     -4.599      1.000    -12.387
    19 ( occ )     -8.448      1.168      0.000     -4.466      1.000    -11.747
    20 ( occ )     -7.739      1.265      0.000     -4.633      1.000    -11.107
    21 ( occ )     -7.739      1.265      0.000     -4.633      1.000    -11.107
    22 ( occ )     -7.630      1.258      0.000     -4.621      1.000    -10.992
    23 ( occ )     -7.630      1.258      0.000     -4.621      1.000    -10.992
    24 ( vir )     -2.534     -1.358      0.000      3.458      1.000     -0.433
    25 ( vir )     -0.927     -1.116      0.000      3.026      1.000      0.982
    26 ( vir )     -0.927     -1.116      0.000      3.026      1.000      0.982
    27 ( vir )      0.390     -0.526      0.000      2.064      1.000      1.928
    28 ( vir )      0.870     -0.755      0.000      2.426      1.000      2.541
    29 ( vir )      1.434     -0.551      0.000      2.000      1.000      2.883
    30 ( vir )      1.434     -0.551      0.000      2.000      1.000      2.883
    31 ( vir )      1.475     -0.629      0.000      2.283      1.000      3.128
    32 ( vir )      1.475     -0.629      0.000      2.283      1.000      3.128
    33 ( vir )      2.838     -0.684      0.000      2.515      1.000      4.670
   
  GW HOMO-LUMO gap (eV)                                                    10.56
  

  Total RI-RPA Time=                                                 1044.222545
  RI-RPA energy  =                                             -1.60816695194281

  Total EXX Time=                                                      33.555669
  EXX energy  =                                               -71.16114106069890

 ENERGY| Total FORCE_EVAL ( QS ) energy (a.u.):            -1120.411030330252515


 -------------------------------------------------------------------------------
 -                                                                             -
 -                                DBCSR STATISTICS                             -
 -                                                                             -
 -------------------------------------------------------------------------------
 COUNTER                                    TOTAL       BLAS       SMM       ACC
 flops    51 x    23 x    51               119646     100.0%      0.0%      0.0%
 flops    51 x    51 x    23               239292     100.0%      0.0%      0.0%
 flops    70 x    23 x    51               328440     100.0%      0.0%      0.0%
 flops    51 x    23 x    70               328440     100.0%      0.0%      0.0%
 flops    51 x    70 x    23               328440     100.0%      0.0%      0.0%
 flops    70 x    51 x    23               328440     100.0%      0.0%      0.0%
 flops    51 x    51 x    51               530604     100.0%      0.0%      0.0%
 flops    51 x   140 x    51               728280     100.0%      0.0%      0.0%
 flops    70 x    51 x    51               728280     100.0%      0.0%      0.0%
 flops   140 x    51 x    51               728280     100.0%      0.0%      0.0%
 flops    70 x    23 x    70               901600     100.0%      0.0%      0.0%
 flops    70 x    70 x    23              1352400     100.0%      0.0%      0.0%
 flops    51 x    51 x    70              1456560     100.0%      0.0%      0.0%
 flops   140 x   140 x    51              1999200     100.0%      0.0%      0.0%
 flops    51 x   140 x    70              1999200     100.0%      0.0%      0.0%
 flops    70 x    51 x    70              1999200     100.0%      0.0%      0.0%
 flops   140 x    51 x    70              1999200     100.0%      0.0%      0.0%
 flops   140 x   140 x    70              5488000     100.0%      0.0%      0.0%
 flops   230 x    51 x    51            670017600     100.0%      0.0%      0.0%
 flops    51 x  1428 x    51           1292551344     100.0%      0.0%      0.0%
 flops   460 x    51 x    51           1340035200     100.0%      0.0%      0.0%
 flops   230 x    51 x    70           1839264000     100.0%      0.0%      0.0%
 flops   230 x   140 x    51           1839264000     100.0%      0.0%      0.0%
 flops    70 x  1428 x    51           3425829120     100.0%      0.0%      0.0%
 flops    51 x  1960 x    51           3548180160     100.0%      0.0%      0.0%
 flops    51 x  1428 x    70           3548180160     100.0%      0.0%      0.0%
 flops   460 x   140 x    51           3678528000     100.0%      0.0%      0.0%
 flops   460 x    51 x    70           3678528000     100.0%      0.0%      0.0%
 flops    51 x  1479 x    51           4016141676     100.0%      0.0%      0.0%
 flops   230 x    51 x   230           4532472000     100.0%      0.0%      0.0%
 flops   230 x   140 x    70           5048960000     100.0%      0.0%      0.0%
 flops   460 x    51 x   230           9064944000     100.0%      0.0%      0.0%
 flops   230 x   230 x   230           9198252000     100.0%      0.0%      0.0%
 flops    70 x  1960 x    51           9404236800     100.0%      0.0%      0.0%
 flops    70 x  1428 x    70           9404236800     100.0%      0.0%      0.0%
 flops    51 x  1960 x    70           9740102400     100.0%      0.0%      0.0%
 flops   460 x   140 x    70          10097920000     100.0%      0.0%      0.0%
 flops    70 x  1479 x    51          10644540480     100.0%      0.0%      0.0%
 flops    51 x  2030 x    51          11024702640     100.0%      0.0%      0.0%
 flops    51 x  1479 x    70          11024702640     100.0%      0.0%      0.0%
 flops   230 x   140 x   230          12442080000     100.0%      0.0%      0.0%
 flops   230 x   230 x  1457          19422975600     100.0%      0.0%      0.0%
 flops   460 x   140 x   230          24884160000     100.0%      0.0%      0.0%
 flops    70 x  1960 x    70          25815552000     100.0%      0.0%      0.0%
 flops    70 x  2030 x    51          29220307200     100.0%      0.0%      0.0%
 flops    70 x  1479 x    70          29220307200     100.0%      0.0%      0.0%
 flops    51 x  2030 x    70          30263889600     100.0%      0.0%      0.0%
 flops   230 x   230 x  1488          59508691200     100.0%      0.0%      0.0%
 flops    70 x  2030 x    70          80212608000     100.0%      0.0%      0.0%
 flops   230 x   230 x  1504         100247616000     100.0%      0.0%      0.0%
 flops   230 x   230 x  1536         307141632000     100.0%      0.0%      0.0%
 flops inhomo. stacks                           0       0.0%      0.0%      0.0%
 flops total                       846.462991E+09     100.0%      0.0%      0.0%
 flops max/rank                     74.658632E+09     100.0%      0.0%      0.0%
 matmuls inhomo. stacks                         0       0.0%      0.0%      0.0%
 matmuls total                              31884     100.0%      0.0%      0.0%
 number of processed stacks                 16088     100.0%      0.0%      0.0%
 average stack size                                     2.0       0.0       0.0
 marketing flops                   853.488435E+09
 -------------------------------------------------------------------------------
 # multiplications                            902
 max memory usage/rank             762.605568E+06
 # max total images/rank                        3
 # max 3D layers                                1
 # MPI messages exchanged                  391704
 MPI messages size (bytes):
  total size                        10.093046E+09
  min size                           0.000000E+00
  max size                         846.400000E+03
  average size                      25.767021E+03
 MPI breakdown and total messages size (bytes):
             size <=      128              350554                        0
       128 < size <=     8192                   0                        0
      8192 < size <=    32768                5144                133223264
     32768 < size <=   131072               16014               1583744960
    131072 < size <=  4194304               19992               8376121600
   4194304 < size <= 16777216                   0                        0
  16777216 < size                               0                        0
 -------------------------------------------------------------------------------

 *** WARNING in dbcsr_mm.F:278 :: Using a non-square number of MPI ranks ***
 *** might lead to poor performance. Used ranks: 24 Suggested: 25 49     ***

 -------------------------------------------------------------------------------
 -                                                                             -
 -                      DBCSR MESSAGE PASSING PERFORMANCE                      -
 -                                                                             -
 -------------------------------------------------------------------------------

 ROUTINE             CALLS      AVE VOLUME [Bytes]
 MP_Group               26
 MP_Bcast               52                     12.
 MP_Allreduce         5175                      8.
 MP_Alltoall          2596                  71695.
 MP_Wait             49136
 MP_ISend            36280                  42092.
 MP_IRecv            36310                  13339.
 MP_Memory           66262
 -------------------------------------------------------------------------------


 MEMORY| Estimated peak process memory [MiB]                                 728

 -------------------------------------------------------------------------------
 ----                             MULTIGRID INFO                            ----
 -------------------------------------------------------------------------------
 count for grid        1:         516402          cutoff [a.u.]          200.00
 count for grid        2:          43854          cutoff [a.u.]           66.67
 count for grid        3:          28200          cutoff [a.u.]           22.22
 count for grid        4:          13752          cutoff [a.u.]            7.41
 total gridlevel count  :         602208

 -------------------------------------------------------------------------------
 -                                                                             -
 -                         MESSAGE PASSING PERFORMANCE                         -
 -                                                                             -
 -------------------------------------------------------------------------------

 ROUTINE             CALLS      AVE VOLUME [Bytes]
 MP_Group                5
 MP_Bcast              205                2775051.
 MP_Allreduce          347                  72591.
 MP_Sync                72
 MP_Alltoall           123                3788208.
 MP_ISendRecv          276                  69776.
 MP_Wait               940
 MP_comm_split          10
 MP_ISend             3226                 170781.
 MP_IRecv             2706                 367832.
 MP_Recv                 5                   6112.
 -------------------------------------------------------------------------------


 -------------------------------------------------------------------------------
 -                                                                             -
 -                           R E F E R E N C E S                               -
 -                                                                             -
 -------------------------------------------------------------------------------
 
 CP2K version 7.0 (Development Version), the CP2K developers group (2018).
 CP2K is freely available from https://www.cp2k.org/ .

 Schuett, Ole; Messmer, Peter; Hutter, Juerg; VandeVondele, Joost. 
 Electronic Structure Calculations on Graphics Processing Units, John Wiley & Sons, Ltd, 173-190 (2016). 
 GPU-Accelerated Sparse Matrix-Matrix Multiplication for Linear Scaling Density Functional Theory.
 https://dx.doi.org/10.1002/9781118670712.ch8


 Del Ben, M; Schuett, O; Wentz, T; Messmer, P; Hutter, J;
 VandeVondele, J. 
 COMPUTER PHYSICS COMMUNICATIONS, 187, 120-129 (2015). 
 Enabling simulation at the fifth rung of DFT: Large scale RPA
 calculations with excellent time to solution.
 https://dx.doi.org/10.1016/j.cpc.2014.10.021


 Borstnik, U; VandeVondele, J; Weber, V; Hutter, J. 
 PARALLEL COMPUTING, 40 (5-6), 47-58 (2014). 
 Sparse matrix multiplication: The distributed block-compressed sparse
 row library.
 https://dx.doi.org/10.1016/j.parco.2014.03.012


 Hutter, J; Iannuzzi, M; Schiffmann, F; VandeVondele, J. 
 WILEY INTERDISCIPLINARY REVIEWS-COMPUTATIONAL MOLECULAR SCIENCE, 4 (1), 15-25 (2014). 
 CP2K: atomistic simulations of condensed matter systems.
 https://dx.doi.org/10.1002/wcms.1159


 Del Ben, M; Hutter, J; VandeVondele, J. 
 JOURNAL OF CHEMICAL THEORY AND COMPUTATION, 9 (6), 2654-2671 (2013). 
 Electron Correlation in the Condensed Phase from a Resolution of
 Identity Approach Based on the Gaussian and Plane Waves Scheme.
 https://dx.doi.org/10.1021/ct4002202


 Del Ben, M; Hutter, J; VandeVondele, J. 
 JOURNAL OF CHEMICAL THEORY AND COMPUTATION, 8 (11), 4177-4188 (2012). 
 Second-Order Moller-Plesset Perturbation Theory in the Condensed Phase:
 An Efficient and Massively Parallel Gaussian and Plane Waves Approach.
 https://dx.doi.org/10.1021/ct300531w


 Guidon, M; Hutter, J; VandeVondele, J. 
 JOURNAL OF CHEMICAL THEORY AND COMPUTATION, 5 (11), 3010-3021 (2009). 
 Robust Periodic Hartree-Fock Exchange for Large-Scale Simulations Using
 Gaussian Basis Sets.
 https://dx.doi.org/10.1021/ct900494g


 Guidon, M; Schiffmann, F; Hutter, J; VandeVondele, J. 
 JOURNAL OF CHEMICAL PHYSICS, 128 (21), 214104 (2008). 
 Ab initio molecular dynamics using hybrid density functionals.
 https://dx.doi.org/10.1063/1.2931945


 Frigo, M; Johnson, SG. 
 PROCEEDINGS OF THE IEEE, 93 (2), 216-231 (2005). 
 The design and implementation of FFTW3.
 https://dx.doi.org/10.1109/JPROC.2004.840301


 Lippert, G; Hutter, J; Parrinello, M. 
 THEORETICAL CHEMISTRY ACCOUNTS, 103 (2), 124-140 (1999). 
 The Gaussian and augmented-plane-wave density functional method for ab
 initio molecular dynamics simulations.
 https://dx.doi.org/10.1007/s002140050523


 Krack, M; Parrinello, M. 
 PHYSICAL CHEMISTRY CHEMICAL PHYSICS, 2 (10), 2105-2112 (2000). 
 All-electron ab-initio molecular dynamics.
 https://dx.doi.org/10.1039/b001167n


 Martyna, GJ; Tuckerman, ME. 
 JOURNAL OF CHEMICAL PHYSICS, 110 (6), 2810-2821 (1999). 
 A reciprocal space based method for treating long range interactions in
 ab initio and force-field-based calculations in clusters.
 https://dx.doi.org/10.1063/1.477923


 Perdew, JP; Burke, K; Ernzerhof, M. 
 PHYSICAL REVIEW LETTERS, 77 (18), 3865-3868 (1996). 
 Generalized gradient approximation made simple.
 https://dx.doi.org/10.1103/PhysRevLett.77.3865


 -------------------------------------------------------------------------------
 -                                                                             -
 -                                T I M I N G                                  -
 -                                                                             -
 -------------------------------------------------------------------------------
 SUBROUTINE                       CALLS  ASD         SELF TIME        TOTAL TIME
                                MAXIMUM       AVERAGE  MAXIMUM  AVERAGE  MAXIMUM
 CP2K                                 1  1.0    0.109    0.136 1087.297 1087.299
 qs_energies                          1  2.0    0.000    0.000 1084.882 1084.886
 mp2_main                             1  3.0    0.000    0.002 1077.802 1077.806
 mp2_gpw_main                         1  4.0    0.000    0.001 1044.219 1044.223
 mp2_ri_gpw_compute_in                1  5.0    0.000    0.000  671.144  694.133
 compute_low_sc_3c_integrals          1  6.0  194.430  201.994  668.473  691.461
 compute_low_sc_3c_integrals_pu  110519  7.0  471.804  492.353  471.804  492.353
 rpa_ri_compute_en                    1  5.0    0.000    0.000  350.078  350.081
 rpa_num_int                          1  6.0    0.001    0.002  350.074  350.077
 get_l_sq_wghts_sin_tf_t_to_w         2  7.0  140.728  142.680  142.700  142.702
 get_l_sq_wghts_cos_tf_t_to_w         2  7.0  140.151  142.565  142.582  142.585
 mp_comm_split_direct                 8  6.6   23.934  101.985   23.934  101.985
 create_dbcsr_matrices_im_time        1  5.0    0.001    0.001   22.994  101.586
 dbcsr_multiply_generic             902  9.9    0.065    0.082   47.429   51.331
 multiply_cannon                    902 10.9    0.183    0.217   41.751   47.156
 multiply_cannon_multrec          10351 11.9   30.946   42.586   32.499   42.767
 compute_mat_P_omega                  1  7.0    0.000    0.000   41.022   41.023
 compute_vec_Sigma_x_minus_vxc_       1  4.0    0.000    0.000   33.556   33.556
 compute_mat_P_omega_calc_P          14  8.0    0.000    0.001   32.709   32.925
 integrate_four_center                1  5.0    0.003    0.006   32.114   32.114
 -------------------------------------------------------------------------------

 The number of warnings for this run is : 1
 
 -------------------------------------------------------------------------------
  **** **** ******  **  PROGRAM ENDED AT                 2019-06-07 18:53:26.022
 ***** ** ***  *** **   PROGRAM RAN ON                                    tcopt4
 **    ****   ******    PROGRAM RAN BY                                   wilhelm
 ***** **    ** ** **   PROGRAM PROCESS ID                                 92794
  **** **  *******  **  PROGRAM STOPPED IN /data/wilhelm/2_job_test/11_GW100/3_c
                                           alcs/63_MgCl2
