 DBCSR| CPU Multiplication driver                                           BLAS
 DBCSR| Multrec recursion limit                                              512
 DBCSR| Multiplication stack size                                           1000
 DBCSR| Maximum elements for images                                    UNLIMITED
 DBCSR| Multiplicative factor virtual images                                   1
 DBCSR| Use multiplication densification                                       T
 DBCSR| Multiplication size stacks                                             3
 DBCSR| Number of 3D layers                                               SINGLE
 DBCSR| Use MPI memory allocation                                              T
 DBCSR| Use RMA algorithm                                                      F
 DBCSR| Use Communication thread                                               T
 DBCSR| Communication thread load                                             87


  **** **** ******  **  PROGRAM STARTED AT               2019-05-31 16:56:26.585
 ***** ** ***  *** **   PROGRAM STARTED ON                                tcopt4
 **    ****   ******    PROGRAM STARTED BY                               wilhelm
 ***** **    ** ** **   PROGRAM PROCESS ID                                 79730
  **** **  *******  **  PROGRAM STARTED IN /data/wilhelm/2_job_test/11_GW100/3_c
                                           alcs/43_LiH

 CP2K| version string:                    CP2K version 7.0 (Development Version)
 CP2K| source code revision number:                                  git:026fb12
 CP2K| cp2kflags: libint fftw3 libxc pexsi elpa=201705 parallel mpi3 scalapack q
 CP2K|            uip libderiv_max_am1=5 libint_max_am=6
 CP2K| is freely available from                            https://www.cp2k.org/
 CP2K| Program compiled at                         Sat May 11 13:15:02 CEST 2019
 CP2K| Program compiled on                                                tcopt4
 CP2K| Program compiled for                            local_valgrind_March_2019
 CP2K| Data directory path              /data/wilhelm/1_git_repository/cp2k/data
 CP2K| Input file name                                                    GW.inp

 GLOBAL| Force Environment number                                              1
 GLOBAL| Basis set file name                              BASIS_def2_QZVP_RI_ALL
 GLOBAL| Potential file name                                           POTENTIAL
 GLOBAL| MM Potential file name                                     MM_POTENTIAL
 GLOBAL| Coordinate file name                                         43_LiH.xyz
 GLOBAL| Method name                                                        CP2K
 GLOBAL| Project name                                                   ALL_ELEC
 GLOBAL| Preferred FFT library                                             FFTW3
 GLOBAL| Preferred diagonalization lib.                                       SL
 GLOBAL| Run type                                                         ENERGY
 GLOBAL| All-to-all communication in single precision                          F
 GLOBAL| FFTs using library dependent lengths                                  F
 GLOBAL| Global print level                                               MEDIUM
 GLOBAL| MPI I/O enabled                                                       T
 GLOBAL| Total number of message passing processes                            40
 GLOBAL| Number of threads for this process                                    1
 GLOBAL| This output is from process                                           0
 GLOBAL| CPU model name :  Intel(R) Xeon(R) CPU E5-2697 v3 @ 2.60GHz

 MEMORY| system memory details [Kb]
 MEMORY|                        rank 0           min           max       average
 MEMORY| MemTotal            396954008     396954008     396954008     396954008
 MEMORY| MemFree             376761988     376761988     376761988     376761988
 MEMORY| Buffers                335052        335052        335052        335052
 MEMORY| Cached               15971604      15971604      15971604      15971604
 MEMORY| Slab                   603644        603644        603644        603644
 MEMORY| SReclaimable           462300        462300        462300        462300
 MEMORY| MemLikelyFree       393530944     393530944     393530944     393530944


 *** Fundamental physical constants (SI units) ***

 *** Literature: B. J. Mohr and B. N. Taylor,
 ***             CODATA recommended values of the fundamental physical
 ***             constants: 2006, Web Version 5.1
 ***             http://physics.nist.gov/constants

 Speed of light in vacuum [m/s]                             2.99792458000000E+08
 Magnetic constant or permeability of vacuum [N/A**2]       1.25663706143592E-06
 Electric constant or permittivity of vacuum [F/m]          8.85418781762039E-12
 Planck constant (h) [J*s]                                  6.62606896000000E-34
 Planck constant (h-bar) [J*s]                              1.05457162825177E-34
 Elementary charge [C]                                      1.60217648700000E-19
 Electron mass [kg]                                         9.10938215000000E-31
 Electron g factor [ ]                                     -2.00231930436220E+00
 Proton mass [kg]                                           1.67262163700000E-27
 Fine-structure constant                                    7.29735253760000E-03
 Rydberg constant [1/m]                                     1.09737315685270E+07
 Avogadro constant [1/mol]                                  6.02214179000000E+23
 Boltzmann constant [J/K]                                   1.38065040000000E-23
 Atomic mass unit [kg]                                      1.66053878200000E-27
 Bohr radius [m]                                            5.29177208590000E-11

 *** Conversion factors ***

 [u] -> [a.u.]                                              1.82288848426455E+03
 [Angstrom] -> [Bohr] = [a.u.]                              1.88972613288564E+00
 [a.u.] = [Bohr] -> [Angstrom]                              5.29177208590000E-01
 [a.u.] -> [s]                                              2.41888432650478E-17
 [a.u.] -> [fs]                                             2.41888432650478E-02
 [a.u.] -> [J]                                              4.35974393937059E-18
 [a.u.] -> [N]                                              8.23872205491840E-08
 [a.u.] -> [K]                                              3.15774647902944E+05
 [a.u.] -> [kJ/mol]                                         2.62549961709828E+03
 [a.u.] -> [kcal/mol]                                       6.27509468713739E+02
 [a.u.] -> [Pa]                                             2.94210107994716E+13
 [a.u.] -> [bar]                                            2.94210107994716E+08
 [a.u.] -> [atm]                                            2.90362800883016E+08
 [a.u.] -> [eV]                                             2.72113838565563E+01
 [a.u.] -> [Hz]                                             6.57968392072181E+15
 [a.u.] -> [1/cm] (wave numbers)                            2.19474631370540E+05
 [a.u./Bohr**2] -> [1/cm]                                   5.14048714338585E+03
 

 CELL_TOP| Volume [angstrom^3]:                                         4096.000
 CELL_TOP| Vector a [angstrom    16.000     0.000     0.000    |a| =      16.000
 CELL_TOP| Vector b [angstrom     0.000    16.000     0.000    |b| =      16.000
 CELL_TOP| Vector c [angstrom     0.000     0.000    16.000    |c| =      16.000
 CELL_TOP| Angle (b,c), alpha [degree]:                                   90.000
 CELL_TOP| Angle (a,c), beta  [degree]:                                   90.000
 CELL_TOP| Angle (a,b), gamma [degree]:                                   90.000
 CELL_TOP| Numerically orthorhombic:                                         YES

 GENERATE|  Preliminary Number of Bonds generated:                             0
 GENERATE|  Achieved consistency in connectivity generation.

 CELL| Volume [angstrom^3]:                                             4096.000
 CELL| Vector a [angstrom]:      16.000     0.000     0.000    |a| =      16.000
 CELL| Vector b [angstrom]:       0.000    16.000     0.000    |b| =      16.000
 CELL| Vector c [angstrom]:       0.000     0.000    16.000    |c| =      16.000
 CELL| Angle (b,c), alpha [degree]:                                       90.000
 CELL| Angle (a,c), beta  [degree]:                                       90.000
 CELL| Angle (a,b), gamma [degree]:                                       90.000
 CELL| Numerically orthorhombic:                                             YES

 CELL_REF| Volume [angstrom^3]:                                         4096.000
 CELL_REF| Vector a [angstrom    16.000     0.000     0.000    |a| =      16.000
 CELL_REF| Vector b [angstrom     0.000    16.000     0.000    |b| =      16.000
 CELL_REF| Vector c [angstrom     0.000     0.000    16.000    |c| =      16.000
 CELL_REF| Angle (b,c), alpha [degree]:                                   90.000
 CELL_REF| Angle (a,c), beta  [degree]:                                   90.000
 CELL_REF| Angle (a,b), gamma [degree]:                                   90.000
 CELL_REF| Numerically orthorhombic:                                         YES

 *******************************************************************************
 *******************************************************************************
 **                                                                           **
 **     #####                         ##              ##                      **
 **    ##   ##            ##          ##              ##                      **
 **   ##     ##                       ##            ######                    **
 **   ##     ##  ##   ##  ##   #####  ##  ##   ####   ##    #####    #####    **
 **   ##     ##  ##   ##  ##  ##      ## ##   ##      ##   ##   ##  ##   ##   **
 **   ##  ## ##  ##   ##  ##  ##      ####     ###    ##   ######   ######    **
 **    ##  ###   ##   ##  ##  ##      ## ##      ##   ##   ##       ##        **
 **     #######   #####   ##   #####  ##  ##  ####    ##    #####   ##        **
 **           ##                                                    ##        **
 **                                                                           **
 **                                                ... make the atoms dance   **
 **                                                                           **
 **            Copyright (C) by CP2K developers group (2000 - 2019)           **
 **                                                                           **
 *******************************************************************************

 DFT| Spin restricted Kohn-Sham (RKS) calculation                            RKS
 DFT| Multiplicity                                                             1
 DFT| Number of spin states                                                    1
 DFT| Charge                                                                   0
 DFT| Self-interaction correction (SIC)                                       NO
 DFT| Cutoffs: density                                              1.000000E-10
 DFT|          gradient                                             1.000000E-10
 DFT|          tau                                                  1.000000E-10
 DFT|          cutoff_smoothing_range                               0.000000E+00
 DFT| XC density smoothing                                                  NONE
 DFT| XC derivatives                                                          PW
 FUNCTIONAL| ROUTINE=NEW
 FUNCTIONAL| PBE:
 FUNCTIONAL| J.P.Perdew, K.Burke, M.Ernzerhof, Phys. Rev. Letter, vol. 77, n 18,
 FUNCTIONAL|  pp. 3865-3868, (1996){spin unpolarized}                           

 QS| Method:                                                                GAPW
 QS| Density plane wave grid type                        NON-SPHERICAL FULLSPACE
 QS| Number of grid levels:                                                    4
 QS| Density cutoff [a.u.]:                                                200.0
 QS| Multi grid cutoff [a.u.]: 1) grid level                               200.0
 QS|                           2) grid level                                66.7
 QS|                           3) grid level                                22.2
 QS|                           4) grid level                                 7.4
 QS| Grid level progression factor:                                          3.0
 QS| Relative density cutoff [a.u.]:                                        25.0
 QS| Consistent realspace mapping and integration 
 QS| Interaction thresholds: eps_pgf_orb:                                1.0E-05
 QS|                         eps_filter_matrix:                          0.0E+00
 QS|                         eps_core_charge:                            1.0E-12
 QS|                         eps_rho_gspace:                             1.0E-10
 QS|                         eps_rho_rspace:                             1.0E-10
 QS|                         eps_gvg_rspace:                             1.0E-05
 QS|                         eps_ppl:                                    1.0E-02
 QS|                         eps_ppnl:                                   1.0E-07
 QS| GAPW|                   eps_fit:                                    1.0E-04
 QS| GAPW|                   eps_iso:                                    1.0E-12
 QS| GAPW|                   eps_svd:                                    1.0E-08
 QS| GAPW|                   eps_cpc:                                    1.0E-10
 QS| GAPW|   atom-r-grid: quadrature:                 GC_LOG                        
 QS| GAPW|      atom-s-grid:  max l :                                          6
 QS| GAPW|      max_l_rho0 :                                                   2


 ATOMIC KIND INFORMATION

  1. Atomic kind: Li                                    Number of atoms:       1

     Orbital Basis Set                                                 def2-QZVP

       Number of orbital shell sets:                                          13
       Number of orbital shells:                                              13
       Number of primitive Cartesian functions:                               24
       Number of Cartesian basis functions:                                   40
       Number of spherical basis functions:                                   35
       Norm type:                                                              2

       Normalised Cartesian orbitals:

                        Set   Shell   Orbital            Exponent    Coefficient

                          1       1    1s            14853.977085       0.046759
                                                      2225.223648       0.087614
                                                       504.887390       0.151822
                                                       142.458475       0.246528
                                                        46.315600       0.374141
                                                        16.655335       0.514324
                                                         6.433119       0.600678
                                                         2.602704       0.544460
                                                         1.089725       0.321097

                          2       1    1s                4.423660       0.272734
                                                         1.235639       0.753703

                          3       1    1s                0.460675       0.398525

                          4       1    1s                0.096617       0.123510

                          5       1    1s                0.045915       0.070693

                          6       1    1s                0.021140       0.039513

                          7       1    1px               3.260511       0.222231
                                                         0.650030       0.162952
                                                         0.169417       0.133843
                          7       1    1py               3.260511       0.222231
                                                         0.650030       0.162952
                                                         0.169417       0.133843
                          7       1    1pz               3.260511       0.222231
                                                         0.650030       0.162952
                                                         0.169417       0.133843

                          8       1    1px               0.055732       0.038599
                          8       1    1py               0.055732       0.038599
                          8       1    1pz               0.055732       0.038599

                          9       1    1px               0.020490       0.011050
                          9       1    1py               0.020490       0.011050
                          9       1    1pz               0.020490       0.011050

                         10       1    1px               3.327000       6.404808
                         10       1    1py               3.327000       6.404808
                         10       1    1pz               3.327000       6.404808

                         11       1    1dx2              0.230000       0.125728
                         11       1    1dxy              0.230000       0.217768
                         11       1    1dxz              0.230000       0.217768
                         11       1    1dy2              0.230000       0.125728
                         11       1    1dyz              0.230000       0.217768
                         11       1    1dz2              0.230000       0.125728

                         12       1    1dx2              0.075700       0.017982
                         12       1    1dxy              0.075700       0.031145
                         12       1    1dxz              0.075700       0.031145
                         12       1    1dy2              0.075700       0.017982
                         12       1    1dyz              0.075700       0.031145
                         12       1    1dz2              0.075700       0.017982

                         13       1    1fx3              0.135000       0.016263
                         13       1    1fx2y             0.135000       0.036366
                         13       1    1fx2z             0.135000       0.036366
                         13       1    1fxy2             0.135000       0.036366
                         13       1    1fxyz             0.135000       0.062987
                         13       1    1fxz2             0.135000       0.036366
                         13       1    1fy3              0.135000       0.016263
                         13       1    1fy2z             0.135000       0.036366
                         13       1    1fyz2             0.135000       0.036366
                         13       1    1fz3              0.135000       0.016263

     RI Auxiliary Basis Set                                                RI-5Z

       Number of orbital shell sets:                                          39
       Number of orbital shells:                                              39
       Number of primitive Cartesian functions:                               39
       Number of Cartesian basis functions:                                  287
       Number of spherical basis functions:                                  193
       Norm type:                                                              2

       Normalised Cartesian orbitals:

                        Set   Shell   Orbital            Exponent    Coefficient

                          1       1    1s              115.553000      25.118634

                          2       1    1s               24.228600       7.783167

                          3       1    1s                7.795370       3.324969

                          4       1    1s                2.891360       1.580290

                          5       1    1s                1.423940       0.929028

                          6       1    1s                0.705917       0.548877

                          7       1    1s                0.380123       0.345027

                          8       1    1s                0.246901       0.249633

                          9       1    1s                0.123532       0.148506

                         10       1    1s                0.064288       0.090993

                         11       1    1px              20.093900      60.641563
                         11       1    1py              20.093900      60.641563
                         11       1    1pz              20.093900      60.641563

                         12       1    1px               6.081490      13.612960
                         12       1    1py               6.081490      13.612960
                         12       1    1pz               6.081490      13.612960

                         13       1    1px               2.347260       4.141347
                         13       1    1py               2.347260       4.141347
                         13       1    1pz               2.347260       4.141347

                         14       1    1px               1.029950       1.478973
                         14       1    1py               1.029950       1.478973
                         14       1    1pz               1.029950       1.478973

                         15       1    1px               0.520190       0.629713
                         15       1    1py               0.520190       0.629713
                         15       1    1pz               0.520190       0.629713

                         16       1    1px               0.223276       0.218772
                         16       1    1py               0.223276       0.218772
                         16       1    1pz               0.223276       0.218772

                         17       1    1px               0.121261       0.101998
                         17       1    1py               0.121261       0.101998
                         17       1    1pz               0.121261       0.101998

                         18       1    1px               0.072777       0.053881
                         18       1    1py               0.072777       0.053881
                         18       1    1pz               0.072777       0.053881

                         19       1    1dx2              6.963580      49.132227
                         19       1    1dxy              6.963580      85.099514
                         19       1    1dxz              6.963580      85.099514
                         19       1    1dy2              6.963580      49.132227
                         19       1    1dyz              6.963580      85.099514
                         19       1    1dz2              6.963580      49.132227

                         20       1    1dx2              2.681530       9.248666
                         20       1    1dxy              2.681530      16.019160
                         20       1    1dxz              2.681530      16.019160
                         20       1    1dy2              2.681530       9.248666
                         20       1    1dyz              2.681530      16.019160
                         20       1    1dz2              2.681530       9.248666

                         21       1    1dx2              1.351630       2.788757
                         21       1    1dxy              1.351630       4.830269
                         21       1    1dxz              1.351630       4.830269
                         21       1    1dy2              1.351630       2.788757
                         21       1    1dyz              1.351630       4.830269
                         21       1    1dz2              1.351630       2.788757

                         22       1    1dx2              0.771893       1.046247
                         22       1    1dxy              0.771893       1.812154
                         22       1    1dxz              0.771893       1.812154
                         22       1    1dy2              0.771893       1.046247
                         22       1    1dyz              0.771893       1.812154
                         22       1    1dz2              0.771893       1.046247

                         23       1    1dx2              0.339644       0.248715
                         23       1    1dxy              0.339644       0.430786
                         23       1    1dxz              0.339644       0.430786
                         23       1    1dy2              0.339644       0.248715
                         23       1    1dyz              0.339644       0.430786
                         23       1    1dz2              0.339644       0.248715

                         24       1    1dx2              0.173452       0.076731
                         24       1    1dxy              0.173452       0.132903
                         24       1    1dxz              0.173452       0.132903
                         24       1    1dy2              0.173452       0.076731
                         24       1    1dyz              0.173452       0.132903
                         24       1    1dz2              0.173452       0.076731

                         25       1    1dx2              0.101078       0.029823
                         25       1    1dxy              0.101078       0.051656
                         25       1    1dxz              0.101078       0.051656
                         25       1    1dy2              0.101078       0.029823
                         25       1    1dyz              0.101078       0.051656
                         25       1    1dz2              0.101078       0.029823

                         26       1    1fx3              3.229490      20.582865
                         26       1    1fx2y             3.229490      46.024685
                         26       1    1fx2z             3.229490      46.024685
                         26       1    1fxy2             3.229490      46.024685
                         26       1    1fxyz             3.229490      79.717093
                         26       1    1fxz2             3.229490      46.024685
                         26       1    1fy3              3.229490      20.582865
                         26       1    1fy2z             3.229490      46.024685
                         26       1    1fyz2             3.229490      46.024685
                         26       1    1fz3              3.229490      20.582865

                         27       1    1fx3              1.349290       2.888626
                         27       1    1fx2y             1.349290       6.459165
                         27       1    1fx2z             1.349290       6.459165
                         27       1    1fxy2             1.349290       6.459165
                         27       1    1fxyz             1.349290      11.187602
                         27       1    1fxz2             1.349290       6.459165
                         27       1    1fy3              1.349290       2.888626
                         27       1    1fy2z             1.349290       6.459165
                         27       1    1fyz2             1.349290       6.459165
                         27       1    1fz3              1.349290       2.888626

                         28       1    1fx3              0.764640       0.804883
                         28       1    1fx2y             0.764640       1.799773
                         28       1    1fx2z             0.764640       1.799773
                         28       1    1fxy2             0.764640       1.799773
                         28       1    1fxyz             0.764640       3.117298
                         28       1    1fxz2             0.764640       1.799773
                         28       1    1fy3              0.764640       0.804883
                         28       1    1fy2z             0.764640       1.799773
                         28       1    1fyz2             0.764640       1.799773
                         28       1    1fz3              0.764640       0.804883

                         29       1    1fx3              0.415519       0.204072
                         29       1    1fx2y             0.415519       0.456319
                         29       1    1fx2z             0.415519       0.456319
                         29       1    1fxy2             0.415519       0.456319
                         29       1    1fxyz             0.415519       0.790368
                         29       1    1fxz2             0.415519       0.456319
                         29       1    1fy3              0.415519       0.204072
                         29       1    1fy2z             0.415519       0.456319
                         29       1    1fyz2             0.415519       0.456319
                         29       1    1fz3              0.415519       0.204072

                         30       1    1fx3              0.259280       0.070621
                         30       1    1fx2y             0.259280       0.157914
                         30       1    1fx2z             0.259280       0.157914
                         30       1    1fxy2             0.259280       0.157914
                         30       1    1fxyz             0.259280       0.273515
                         30       1    1fxz2             0.259280       0.157914
                         30       1    1fy3              0.259280       0.070621
                         30       1    1fy2z             0.259280       0.157914
                         30       1    1fyz2             0.259280       0.157914
                         30       1    1fz3              0.259280       0.070621

                         31       1    1fx3              0.156013       0.022520
                         31       1    1fx2y             0.156013       0.050356
                         31       1    1fx2z             0.156013       0.050356
                         31       1    1fxy2             0.156013       0.050356
                         31       1    1fxyz             0.156013       0.087219
                         31       1    1fxz2             0.156013       0.050356
                         31       1    1fy3              0.156013       0.022520
                         31       1    1fy2z             0.156013       0.050356
                         31       1    1fyz2             0.156013       0.050356
                         31       1    1fz3              0.156013       0.022520

                         32       1    1gx4              1.819640       5.772919
                         32       1    1gx3y             1.819640      15.273709
                         32       1    1gx3z             1.819640      15.273709
                         32       1    1gx2y2            1.819640      19.718273
                         32       1    1gx2yz            1.819640      34.153051
                         32       1    1gx2z2            1.819640      19.718273
                         32       1    1gxy3             1.819640      15.273709
                         32       1    1gxy2z            1.819640      34.153051
                         32       1    1gxyz2            1.819640      34.153051
                         32       1    1gxz3             1.819640      15.273709
                         32       1    1gy4              1.819640       5.772919
                         32       1    1gy3z             1.819640      15.273709
                         32       1    1gy2z2            1.819640      19.718273
                         32       1    1gyz3             1.819640      15.273709
                         32       1    1gz4              1.819640       5.772919

                         33       1    1gx4              0.856517       0.726874
                         33       1    1gx3y             0.856517       1.923129
                         33       1    1gx3z             0.856517       1.923129
                         33       1    1gx2y2            0.856517       2.482749
                         33       1    1gx2yz            0.856517       4.300247
                         33       1    1gx2z2            0.856517       2.482749
                         33       1    1gxy3             0.856517       1.923129
                         33       1    1gxy2z            0.856517       4.300247
                         33       1    1gxyz2            0.856517       4.300247
                         33       1    1gxz3             0.856517       1.923129
                         33       1    1gy4              0.856517       0.726874
                         33       1    1gy3z             0.856517       1.923129
                         33       1    1gy2z2            0.856517       2.482749
                         33       1    1gyz3             0.856517       1.923129
                         33       1    1gz4              0.856517       0.726874

                         34       1    1gx4              0.434910       0.112729
                         34       1    1gx3y             0.434910       0.298252
                         34       1    1gx3z             0.434910       0.298252
                         34       1    1gx2y2            0.434910       0.385041
                         34       1    1gx2yz            0.434910       0.666911
                         34       1    1gx2z2            0.434910       0.385041
                         34       1    1gxy3             0.434910       0.298252
                         34       1    1gxy2z            0.434910       0.666911
                         34       1    1gxyz2            0.434910       0.666911
                         34       1    1gxz3             0.434910       0.298252
                         34       1    1gy4              0.434910       0.112729
                         34       1    1gy3z             0.434910       0.298252
                         34       1    1gy2z2            0.434910       0.385041
                         34       1    1gyz3             0.434910       0.298252
                         34       1    1gz4              0.434910       0.112729

                         35       1    1gx4              0.196188       0.012627
                         35       1    1gx3y             0.196188       0.033407
                         35       1    1gx3z             0.196188       0.033407
                         35       1    1gx2y2            0.196188       0.043128
                         35       1    1gx2yz            0.196188       0.074700
                         35       1    1gx2z2            0.196188       0.043128
                         35       1    1gxy3             0.196188       0.033407
                         35       1    1gxy2z            0.196188       0.074700
                         35       1    1gxyz2            0.196188       0.074700
                         35       1    1gxz3             0.196188       0.033407
                         35       1    1gy4              0.196188       0.012627
                         35       1    1gy3z             0.196188       0.033407
                         35       1    1gy2z2            0.196188       0.043128
                         35       1    1gyz3             0.196188       0.033407
                         35       1    1gz4              0.196188       0.012627

                         36       1    1hx5              1.185280       1.289028
                         36       1    1hx4y             1.185280       3.867083
                         36       1    1hx4z             1.185280       3.867083
                         36       1    1hx3y2            1.185280       5.907067
                         36       1    1hx3yz            1.185280      10.231341
                         36       1    1hx3z2            1.185280       5.907067
                         36       1    1hx2y3            1.185280       5.907067
                         36       1    1hx2y2z           1.185280      13.208604
                         36       1    1hx2yz2           1.185280      13.208604
                         36       1    1hx2z3            1.185280       5.907067
                         36       1    1hxy4             1.185280       3.867083
                         36       1    1hxy3z            1.185280      10.231341
                         36       1    1hxy2z2           1.185280      13.208604
                         36       1    1hxyz3            1.185280      10.231341
                         36       1    1hxz4             1.185280       3.867083
                         36       1    1hy5              1.185280       1.289028
                         36       1    1hy4z             1.185280       3.867083
                         36       1    1hy3z2            1.185280       5.907067
                         36       1    1hy2z3            1.185280       5.907067
                         36       1    1hyz4             1.185280       3.867083
                         36       1    1hz5              1.185280       1.289028

                         37       1    1hx5              0.598672       0.140026
                         37       1    1hx4y             0.598672       0.420078
                         37       1    1hx4z             0.598672       0.420078
                         37       1    1hx3y2            0.598672       0.641679
                         37       1    1hx3yz            0.598672       1.111421
                         37       1    1hx3z2            0.598672       0.641679
                         37       1    1hx2y3            0.598672       0.641679
                         37       1    1hx2y2z           0.598672       1.434838
                         37       1    1hx2yz2           0.598672       1.434838
                         37       1    1hx2z3            0.598672       0.641679
                         37       1    1hxy4             0.598672       0.420078
                         37       1    1hxy3z            0.598672       1.111421
                         37       1    1hxy2z2           0.598672       1.434838
                         37       1    1hxyz3            0.598672       1.111421
                         37       1    1hxz4             0.598672       0.420078
                         37       1    1hy5              0.598672       0.140026
                         37       1    1hy4z             0.598672       0.420078
                         37       1    1hy3z2            0.598672       0.641679
                         37       1    1hy2z3            0.598672       0.641679
                         37       1    1hyz4             0.598672       0.420078
                         37       1    1hz5              0.598672       0.140026

                         38       1    1hx5              0.427119       0.046733
                         38       1    1hx4y             0.427119       0.140200
                         38       1    1hx4z             0.427119       0.140200
                         38       1    1hx3y2            0.427119       0.214160
                         38       1    1hx3yz            0.427119       0.370935
                         38       1    1hx3z2            0.427119       0.214160
                         38       1    1hx2y3            0.427119       0.214160
                         38       1    1hx2y2z           0.427119       0.478876
                         38       1    1hx2yz2           0.427119       0.478876
                         38       1    1hx2z3            0.427119       0.214160
                         38       1    1hxy4             0.427119       0.140200
                         38       1    1hxy3z            0.427119       0.370935
                         38       1    1hxy2z2           0.427119       0.478876
                         38       1    1hxyz3            0.427119       0.370935
                         38       1    1hxz4             0.427119       0.140200
                         38       1    1hy5              0.427119       0.046733
                         38       1    1hy4z             0.427119       0.140200
                         38       1    1hy3z2            0.427119       0.214160
                         38       1    1hy2z3            0.427119       0.214160
                         38       1    1hyz4             0.427119       0.140200
                         38       1    1hz5              0.427119       0.046733

                         39       1    1ix6              0.598672       0.065334
                         39       1    1ix5y             0.598672       0.216687
                         39       1    1ix5z             0.598672       0.216687
                         39       1    1ix4y2            0.598672       0.375313
                         39       1    1ix4yz            0.598672       0.650061
                         39       1    1ix4z2            0.598672       0.375313
                         39       1    1ix3y3            0.598672       0.444076
                         39       1    1ix3y2z           0.598672       0.992984
                         39       1    1ix3yz2           0.598672       0.992984
                         39       1    1ix3z3            0.598672       0.444076
                         39       1    1ix2y4            0.598672       0.375313
                         39       1    1ix2y3z           0.598672       0.992984
                         39       1    1ix2y2z2          0.598672       1.281937
                         39       1    1ix2yz3           0.598672       0.992984
                         39       1    1ix2z4            0.598672       0.375313
                         39       1    1ixy5             0.598672       0.216687
                         39       1    1ixy4z            0.598672       0.650061
                         39       1    1ixy3z2           0.598672       0.992984
                         39       1    1ixy2z3           0.598672       0.992984
                         39       1    1ixyz4            0.598672       0.650061
                         39       1    1ixz5             0.598672       0.216687
                         39       1    1iy6              0.598672       0.065334
                         39       1    1iy5z             0.598672       0.216687
                         39       1    1iy4z2            0.598672       0.375313
                         39       1    1iy3z3            0.598672       0.444076
                         39       1    1iy2z4            0.598672       0.375313
                         39       1    1iyz5             0.598672       0.216687
                         39       1    1iz6              0.598672       0.065334

     The atoms of this atomic kind are PAW atoms (GAPW):
       Hard Gaussian function radius:                                      1.512
       Rho0 radius:                                                        1.512
       Maximum GTO radius used for PAW projector construction:            24.566

     GAPW Soft Basis Set                                          def2-QZVP_soft

       Number of orbital shell sets:                                          13
       Number of orbital shells:                                              13
       Number of primitive Cartesian functions:                               16
       Number of Cartesian basis functions:                                   40
       Number of spherical basis functions:                                   35
       Norm type:                                                              2

       Normalised Cartesian orbitals:

                        Set   Shell   Orbital            Exponent    Coefficient

                          1       1    1s                2.602704       0.544460
                                                         1.089725       0.321097

                          2       1    1s                1.235639       0.753703

                          3       1    1s                0.460675       0.398525

                          4       1    1s                0.096617       0.123510

                          5       1    1s                0.045915       0.070693

                          6       1    1s                0.021140       0.039513

                          7       1    1px               3.260511       0.222231
                                                         0.650030       0.162952
                                                         0.169417       0.133843
                          7       1    1py               3.260511       0.222231
                                                         0.650030       0.162952
                                                         0.169417       0.133843
                          7       1    1pz               3.260511       0.222231
                                                         0.650030       0.162952
                                                         0.169417       0.133843

                          8       1    1px               0.055732       0.038599
                          8       1    1py               0.055732       0.038599
                          8       1    1pz               0.055732       0.038599

                          9       1    1px               0.020490       0.011050
                          9       1    1py               0.020490       0.011050
                          9       1    1pz               0.020490       0.011050

                         10       1    1px               3.327000       6.404808
                         10       1    1py               3.327000       6.404808
                         10       1    1pz               3.327000       6.404808

                         11       1    1dx2              0.230000       0.125728
                         11       1    1dxy              0.230000       0.217768
                         11       1    1dxz              0.230000       0.217768
                         11       1    1dy2              0.230000       0.125728
                         11       1    1dyz              0.230000       0.217768
                         11       1    1dz2              0.230000       0.125728

                         12       1    1dx2              0.075700       0.017982
                         12       1    1dxy              0.075700       0.031145
                         12       1    1dxz              0.075700       0.031145
                         12       1    1dy2              0.075700       0.017982
                         12       1    1dyz              0.075700       0.031145
                         12       1    1dz2              0.075700       0.017982

                         13       1    1fx3              0.135000       0.016263
                         13       1    1fx2y             0.135000       0.036366
                         13       1    1fx2z             0.135000       0.036366
                         13       1    1fxy2             0.135000       0.036366
                         13       1    1fxyz             0.135000       0.062987
                         13       1    1fxz2             0.135000       0.036366
                         13       1    1fy3              0.135000       0.016263
                         13       1    1fy2z             0.135000       0.036366
                         13       1    1fyz2             0.135000       0.036366
                         13       1    1fz3              0.135000       0.016263

     AE Potential information for                                            ALL

       Description:                                       All-electron potential
                                          Krack, Parrinello, PCCP 2, 2105 (2000)

       Gaussian exponent of the core charge distribution:               3.125000
       Electronic configuration (s p d ...):                           3   0   0

  2. Atomic kind: H                                     Number of atoms:       1

     Orbital Basis Set                                                 def2-QZVP

       Number of orbital shell sets:                                          10
       Number of orbital shells:                                              10
       Number of primitive Cartesian functions:                               13
       Number of Cartesian basis functions:                                   35
       Number of spherical basis functions:                                   30
       Norm type:                                                              2

       Normalised Cartesian orbitals:

                        Set   Shell   Orbital            Exponent    Coefficient

                          1       1    1s              190.691690       0.195396
                                                        28.605532       0.363661
                                                         6.509594       0.612837
                                                         1.841246       0.914889

                          2       1    1s                0.598537       0.484985

                          3       1    1s                0.213976       0.224225

                          4       1    1s                0.080316       0.107526

                          5       1    1px               2.292000       4.019836
                          5       1    1py               2.292000       4.019836
                          5       1    1pz               2.292000       4.019836

                          6       1    1px               0.838000       1.142865
                          6       1    1py               0.838000       1.142865
                          6       1    1pz               0.838000       1.142865

                          7       1    1px               0.292000       0.305963
                          7       1    1py               0.292000       0.305963
                          7       1    1pz               0.292000       0.305963

                          8       1    1dx2              2.062000       5.840024
                          8       1    1dxy              2.062000      10.115218
                          8       1    1dxz              2.062000      10.115218
                          8       1    1dy2              2.062000       5.840024
                          8       1    1dyz              2.062000      10.115218
                          8       1    1dz2              2.062000       5.840024

                          9       1    1dx2              0.662000       0.799670
                          9       1    1dxy              0.662000       1.385069
                          9       1    1dxz              0.662000       1.385069
                          9       1    1dy2              0.662000       0.799670
                          9       1    1dyz              0.662000       1.385069
                          9       1    1dz2              0.662000       0.799670

                         10       1    1fx3              1.397000       3.123535
                         10       1    1fx2y             1.397000       6.984436
                         10       1    1fx2z             1.397000       6.984436
                         10       1    1fxy2             1.397000       6.984436
                         10       1    1fxyz             1.397000      12.097399
                         10       1    1fxz2             1.397000       6.984436
                         10       1    1fy3              1.397000       3.123535
                         10       1    1fy2z             1.397000       6.984436
                         10       1    1fyz2             1.397000       6.984436
                         10       1    1fz3              1.397000       3.123535

     RI Auxiliary Basis Set                                                RI-5Z

       Number of orbital shell sets:                                          21
       Number of orbital shells:                                              21
       Number of primitive Cartesian functions:                               21
       Number of Cartesian basis functions:                                  126
       Number of spherical basis functions:                                   91
       Norm type:                                                              2

       Normalised Cartesian orbitals:

                        Set   Shell   Orbital            Exponent    Coefficient

                          1       1    1s               23.321500       7.563581

                          2       1    1s                4.922970       2.355486

                          3       1    1s                1.775100       1.096042

                          4       1    1s                0.994218       0.709613

                          5       1    1s                0.506054       0.427620

                          6       1    1s                0.236911       0.242019

                          7       1    1px               5.974580      13.314483
                          7       1    1py               5.974580      13.314483
                          7       1    1pz               5.974580      13.314483

                          8       1    1px               2.052170       3.501118
                          8       1    1py               2.052170       3.501118
                          8       1    1pz               2.052170       3.501118

                          9       1    1px               1.248660       1.881462
                          9       1    1py               1.248660       1.881462
                          9       1    1pz               1.248660       1.881462

                         10       1    1px               0.805545       1.087808
                         10       1    1py               0.805545       1.087808
                         10       1    1pz               0.805545       1.087808

                         11       1    1px               0.347892       0.380843
                         11       1    1py               0.347892       0.380843
                         11       1    1pz               0.347892       0.380843

                         12       1    1dx2              3.858160      17.481346
                         12       1    1dxy              3.858160      30.278579
                         12       1    1dxz              3.858160      30.278579
                         12       1    1dy2              3.858160      17.481346
                         12       1    1dyz              3.858160      30.278579
                         12       1    1dz2              3.858160      17.481346

                         13       1    1dx2              1.710630       4.211459
                         13       1    1dxy              1.710630       7.294461
                         13       1    1dxz              1.710630       7.294461
                         13       1    1dy2              1.710630       4.211459
                         13       1    1dyz              1.710630       7.294461
                         13       1    1dz2              1.710630       4.211459

                         14       1    1dx2              0.979237       1.586584
                         14       1    1dxy              0.979237       2.748044
                         14       1    1dxz              0.979237       2.748044
                         14       1    1dy2              0.979237       1.586584
                         14       1    1dyz              0.979237       2.748044
                         14       1    1dz2              0.979237       1.586584

                         15       1    1dx2              0.625366       0.723843
                         15       1    1dxy              0.625366       1.253733
                         15       1    1dxz              0.625366       1.253733
                         15       1    1dy2              0.625366       0.723843
                         15       1    1dyz              0.625366       1.253733
                         15       1    1dz2              0.625366       0.723843

                         16       1    1fx3              3.101510      18.792914
                         16       1    1fx2y             3.101510      42.022232
                         16       1    1fx2z             3.101510      42.022232
                         16       1    1fxy2             3.101510      42.022232
                         16       1    1fxyz             3.101510      72.784641
                         16       1    1fxz2             3.101510      42.022232
                         16       1    1fy3              3.101510      18.792914
                         16       1    1fy2z             3.101510      42.022232
                         16       1    1fyz2             3.101510      42.022232
                         16       1    1fz3              3.101510      18.792914

                         17       1    1fx3              1.198110       2.210915
                         17       1    1fx2y             1.198110       4.943756
                         17       1    1fx2z             1.198110       4.943756
                         17       1    1fxy2             1.198110       4.943756
                         17       1    1fxyz             1.198110       8.562836
                         17       1    1fxz2             1.198110       4.943756
                         17       1    1fy3              1.198110       2.210915
                         17       1    1fy2z             1.198110       4.943756
                         17       1    1fyz2             1.198110       4.943756
                         17       1    1fz3              1.198110       2.210915

                         18       1    1fx3              0.572873       0.420326
                         18       1    1fx2y             0.572873       0.939876
                         18       1    1fx2z             0.572873       0.939876
                         18       1    1fxy2             0.572873       0.939876
                         18       1    1fxyz             0.572873       1.627914
                         18       1    1fxz2             0.572873       0.939876
                         18       1    1fy3              0.572873       0.420326
                         18       1    1fy2z             0.572873       0.939876
                         18       1    1fyz2             0.572873       0.939876
                         18       1    1fz3              0.572873       0.420326

                         19       1    1gx4              2.987800      22.576266
                         19       1    1gx3y             2.987800      59.731185
                         19       1    1gx3z             2.987800      59.731185
                         19       1    1gx2y2            2.987800      77.112629
                         19       1    1gx2yz            2.987800     133.562991
                         19       1    1gx2z2            2.987800      77.112629
                         19       1    1gxy3             2.987800      59.731185
                         19       1    1gxy2z            2.987800     133.562991
                         19       1    1gxyz2            2.987800     133.562991
                         19       1    1gxz3             2.987800      59.731185
                         19       1    1gy4              2.987800      22.576266
                         19       1    1gy3z             2.987800      59.731185
                         19       1    1gy2z2            2.987800      77.112629
                         19       1    1gyz3             2.987800      59.731185
                         19       1    1gz4              2.987800      22.576266

                         20       1    1gx4              1.231920       1.974865
                         20       1    1gx3y             1.231920       5.225001
                         20       1    1gx3z             1.231920       5.225001
                         20       1    1gx2y2            1.231920       6.745447
                         20       1    1gx2yz            1.231920      11.683456
                         20       1    1gx2z2            1.231920       6.745447
                         20       1    1gxy3             1.231920       5.225001
                         20       1    1gxy2z            1.231920      11.683456
                         20       1    1gxyz2            1.231920      11.683456
                         20       1    1gxz3             1.231920       5.225001
                         20       1    1gy4              1.231920       1.974865
                         20       1    1gy3z             1.231920       5.225001
                         20       1    1gy2z2            1.231920       6.745447
                         20       1    1gyz3             1.231920       5.225001
                         20       1    1gz4              1.231920       1.974865

                         21       1    1hx5              3.247390      34.106027
                         21       1    1hx4y             3.247390     102.318080
                         21       1    1hx4z             3.247390     102.318080
                         21       1    1hx3y2            3.247390     156.293448
                         21       1    1hx3yz            3.247390     270.708193
                         21       1    1hx3z2            3.247390     156.293448
                         21       1    1hx2y3            3.247390     156.293448
                         21       1    1hx2y2z           3.247390     349.482775
                         21       1    1hx2yz2           3.247390     349.482775
                         21       1    1hx2z3            3.247390     156.293448
                         21       1    1hxy4             3.247390     102.318080
                         21       1    1hxy3z            3.247390     270.708193
                         21       1    1hxy2z2           3.247390     349.482775
                         21       1    1hxyz3            3.247390     270.708193
                         21       1    1hxz4             3.247390     102.318080
                         21       1    1hy5              3.247390      34.106027
                         21       1    1hy4z             3.247390     102.318080
                         21       1    1hy3z2            3.247390     156.293448
                         21       1    1hy2z3            3.247390     156.293448
                         21       1    1hyz4             3.247390     102.318080
                         21       1    1hz5              3.247390      34.106027

     The atoms of this atomic kind are PAW atoms (GAPW):
       Hard Gaussian function radius:                                      1.200
       Rho0 radius:                                                        1.200
       Maximum GTO radius used for PAW projector construction:            24.566

     GAPW Soft Basis Set                                          def2-QZVP_soft

       Number of orbital shell sets:                                          10
       Number of orbital shells:                                              10
       Number of primitive Cartesian functions:                               10
       Number of Cartesian basis functions:                                   35
       Number of spherical basis functions:                                   30
       Norm type:                                                              2

       Normalised Cartesian orbitals:

                        Set   Shell   Orbital            Exponent    Coefficient

                          1       1    1s                1.841246       0.914889

                          2       1    1s                0.598537       0.484985

                          3       1    1s                0.213976       0.224225

                          4       1    1s                0.080316       0.107526

                          5       1    1px               2.292000       4.019836
                          5       1    1py               2.292000       4.019836
                          5       1    1pz               2.292000       4.019836

                          6       1    1px               0.838000       1.142865
                          6       1    1py               0.838000       1.142865
                          6       1    1pz               0.838000       1.142865

                          7       1    1px               0.292000       0.305963
                          7       1    1py               0.292000       0.305963
                          7       1    1pz               0.292000       0.305963

                          8       1    1dx2              2.062000       5.840024
                          8       1    1dxy              2.062000      10.115218
                          8       1    1dxz              2.062000      10.115218
                          8       1    1dy2              2.062000       5.840024
                          8       1    1dyz              2.062000      10.115218
                          8       1    1dz2              2.062000       5.840024

                          9       1    1dx2              0.662000       0.799670
                          9       1    1dxy              0.662000       1.385069
                          9       1    1dxz              0.662000       1.385069
                          9       1    1dy2              0.662000       0.799670
                          9       1    1dyz              0.662000       1.385069
                          9       1    1dz2              0.662000       0.799670

                         10       1    1fx3              1.397000       3.123535
                         10       1    1fx2y             1.397000       6.984436
                         10       1    1fx2z             1.397000       6.984436
                         10       1    1fxy2             1.397000       6.984436
                         10       1    1fxyz             1.397000      12.097399
                         10       1    1fxz2             1.397000       6.984436
                         10       1    1fy3              1.397000       3.123535
                         10       1    1fy2z             1.397000       6.984436
                         10       1    1fyz2             1.397000       6.984436
                         10       1    1fz3              1.397000       3.123535

     AE Potential information for                                            ALL

       Description:                                       All-electron potential
                                          Krack, Parrinello, PCCP 2, 2105 (2000)

       Gaussian exponent of the core charge distribution:              12.500000
       Electronic configuration (s p d ...):                           1   0   0


 MOLECULE KIND INFORMATION


 All atoms are their own molecule, skipping detailed information


 TOTAL NUMBERS AND MAXIMUM NUMBERS

  Total number of            - Atomic kinds:                                   2
                             - Atoms:                                          2
                             - Shell sets:                                    23
                             - Shells:                                        23
                             - Primitive Cartesian functions:                 37
                             - Cartesian basis functions:                     75
                             - Spherical basis functions:                     65

  Maximum angular momentum of the orbital basis functions:                     3


 MODULE QUICKSTEP:  ATOMIC COORDINATES IN angstrom

  Atom  Kind  Element       X           Y           Z          Z(eff)       Mass

       1     1 Li   3    8.000000    8.000000    7.202550      3.00       6.9410
       2     2 H    1    8.000000    8.000000    8.797450      1.00       1.0079




 SCF PARAMETERS         Density guess:                                   RESTART
                        --------------------------------------------------------
                        max_scf:                                             200
                        max_scf_history:                                       0
                        max_diis:                                              4
                        --------------------------------------------------------
                        eps_scf:                                        1.00E-06
                        eps_scf_history:                                0.00E+00
                        eps_diis:                                       1.00E-01
                        eps_eigval:                                     1.00E-05
                        --------------------------------------------------------
                        level_shift [a.u.]:                                 0.00
                        --------------------------------------------------------
                        Mixing method:                           DIRECT_P_MIXING
                        --------------------------------------------------------
                        No outer SCF

 PW_GRID| Information for grid number                                          1
 PW_GRID| Grid distributed over                                    40 processors
 PW_GRID| Real space group dimensions                                    40    1
 PW_GRID| the grid is blocked:                                                NO
 PW_GRID| Cutoff [a.u.]                                                    400.0
 PW_GRID| spherical cutoff:                                                   NO
 PW_GRID|   Bounds   1           -144     143                Points:         288
 PW_GRID|   Bounds   2           -144     143                Points:         288
 PW_GRID|   Bounds   3           -144     143                Points:         288
 PW_GRID| Volume element (a.u.^3)  0.1157E-02     Volume (a.u.^3)     27641.1785
 PW_GRID| Grid span                                                    FULLSPACE
 PW_GRID|   Distribution                         Average         Max         Min
 PW_GRID|   G-Vectors                           597196.8      597312      597024
 PW_GRID|   G-Rays                                2073.6        2074        2073
 PW_GRID|   Real Space Points                   597196.8      663552      580608

 PW_GRID| Information for grid number                                          2
 PW_GRID| Grid distributed over                                    40 processors
 PW_GRID| Real space group dimensions                                    40    1
 PW_GRID| the grid is blocked:                                                NO
 PW_GRID| Cutoff [a.u.]                                                    200.0
 PW_GRID| spherical cutoff:                                                   NO
 PW_GRID|   Bounds   1           -100      99                Points:         200
 PW_GRID|   Bounds   2           -100      99                Points:         200
 PW_GRID|   Bounds   3           -100      99                Points:         200
 PW_GRID| Volume element (a.u.^3)  0.3455E-02     Volume (a.u.^3)     27641.1785
 PW_GRID| Grid span                                                    FULLSPACE
 PW_GRID|   Distribution                         Average         Max         Min
 PW_GRID|   G-Vectors                           200000.0      200600      199600
 PW_GRID|   G-Rays                                1000.0        1003         998
 PW_GRID|   Real Space Points                   200000.0      200000      200000

 PW_GRID| Information for grid number                                          3
 PW_GRID| Grid distributed over                                    40 processors
 PW_GRID| Real space group dimensions                                    40    1
 PW_GRID| the grid is blocked:                                                NO
 PW_GRID| Cutoff [a.u.]                                                     66.7
 PW_GRID| spherical cutoff:                                                   NO
 PW_GRID|   Bounds   1            -60      59                Points:         120
 PW_GRID|   Bounds   2            -60      59                Points:         120
 PW_GRID|   Bounds   3            -60      59                Points:         120
 PW_GRID| Volume element (a.u.^3)  0.1600E-01     Volume (a.u.^3)     27641.1785
 PW_GRID| Grid span                                                    FULLSPACE
 PW_GRID|   Distribution                         Average         Max         Min
 PW_GRID|   G-Vectors                            43200.0       43560       42960
 PW_GRID|   G-Rays                                 360.0         363         358
 PW_GRID|   Real Space Points                    43200.0       43200       43200

 PW_GRID| Information for grid number                                          4
 PW_GRID| Grid distributed over                                    40 processors
 PW_GRID| Real space group dimensions                                    40    1
 PW_GRID| the grid is blocked:                                                NO
 PW_GRID| Cutoff [a.u.]                                                     22.2
 PW_GRID| spherical cutoff:                                                   NO
 PW_GRID|   Bounds   1            -36      35                Points:          72
 PW_GRID|   Bounds   2            -36      35                Points:          72
 PW_GRID|   Bounds   3            -36      35                Points:          72
 PW_GRID| Volume element (a.u.^3)  0.7406E-01     Volume (a.u.^3)     27641.1785
 PW_GRID| Grid span                                                    FULLSPACE
 PW_GRID|   Distribution                         Average         Max         Min
 PW_GRID|   G-Vectors                             9331.2        9432        9288
 PW_GRID|   G-Rays                                 129.6         131         129
 PW_GRID|   Real Space Points                     9331.2       10368        5184

 PW_GRID| Information for grid number                                          5
 PW_GRID| Grid distributed over                                    40 processors
 PW_GRID| Real space group dimensions                                    40    1
 PW_GRID| the grid is blocked:                                                NO
 PW_GRID| Cutoff [a.u.]                                                      7.4
 PW_GRID| spherical cutoff:                                                   NO
 PW_GRID|   Bounds   1            -20      19                Points:          40
 PW_GRID|   Bounds   2            -20      19                Points:          40
 PW_GRID|   Bounds   3            -20      19                Points:          40
 PW_GRID| Volume element (a.u.^3)  0.4319         Volume (a.u.^3)     27641.1785
 PW_GRID| Grid span                                                    FULLSPACE
 PW_GRID|   Distribution                         Average         Max         Min
 PW_GRID|   G-Vectors                             1600.0        1720        1520
 PW_GRID|   G-Rays                                  40.0          43          38
 PW_GRID|   Real Space Points                     1600.0        1600        1600

 POISSON| Solver                                          Martyna-Tuckerman (MT)
 POISSON| MT| Alpha                                                        7.000
 POISSON| MT| Relative cutoff                                                2.0
 POISSON| Periodicity                                                       NONE

 RS_GRID| Information for grid number                                          2
 RS_GRID|   Bounds   1           -100      99                Points:         200
 RS_GRID|   Bounds   2           -100      99                Points:         200
 RS_GRID|   Bounds   3           -100      99                Points:         200
 RS_GRID| Real space distribution over                                  5 groups
 RS_GRID| Real space distribution along direction                              2
 RS_GRID| Border size                                                         24
 RS_GRID| Real space distribution over                                  8 groups
 RS_GRID| Real space distribution along direction                              3
 RS_GRID| Border size                                                         24
 RS_GRID|   Distribution                         Average         Max         Min
 RS_GRID|   Planes                                  88.0          88          88
 RS_GRID|   Distribution                         Average         Max         Min
 RS_GRID|   Planes                                  73.0          73          73

 RS_GRID| Information for grid number                                          3
 RS_GRID|   Bounds   1            -60      59                Points:         120
 RS_GRID|   Bounds   2            -60      59                Points:         120
 RS_GRID|   Bounds   3            -60      59                Points:         120
 RS_GRID| Real space distribution over                                  5 groups
 RS_GRID| Real space distribution along direction                              2
 RS_GRID| Border size                                                         26
 RS_GRID| Real space distribution over                                  8 groups
 RS_GRID| Real space distribution along direction                              3
 RS_GRID| Border size                                                         26
 RS_GRID|   Distribution                         Average         Max         Min
 RS_GRID|   Planes                                  76.0          76          76
 RS_GRID|   Distribution                         Average         Max         Min
 RS_GRID|   Planes                                  67.0          67          67

 RS_GRID| Information for grid number                                          4
 RS_GRID|   Bounds   1            -36      35                Points:          72
 RS_GRID|   Bounds   2            -36      35                Points:          72
 RS_GRID|   Bounds   3            -36      35                Points:          72
 RS_GRID| Real space fully replicated
 RS_GRID| Group size                                                           1

 RS_GRID| Information for grid number                                          5
 RS_GRID|   Bounds   1            -20      19                Points:          40
 RS_GRID|   Bounds   2            -20      19                Points:          40
 RS_GRID|   Bounds   3            -20      19                Points:          40
 RS_GRID| Real space fully replicated
 RS_GRID| Group size                                                           1
 
 RI-RPA| using GPW style
 

  HFX_INFO| Replica ID:                                                        1
  HFX_INFO| EPS_SCHWARZ:                                                 2.0E-17
  HFX_INFO| EPS_SCHWARZ_FORCES                                           1.0E-06
  HFX_INFO| EPS_STORAGE_SCALING:                                         1.0E+00
  HFX_INFO| NBINS:                                                            64
  HFX_INFO| BLOCK_SIZE:                                                        1
  HFX_INFO| FRACTION:                                               1.0000000000
[...]
 flops    35 x    35 x    30                73500     100.0%      0.0%      0.0%
 flops    35 x    35 x    35                85750     100.0%      0.0%      0.0%
 flops    65 x    65 x    30               253500     100.0%      0.0%      0.0%
 flops    65 x    65 x    35               295750     100.0%      0.0%      0.0%
 flops    91 x    91 x    91             21099988     100.0%      0.0%      0.0%
 flops    91 x    91 x   193             44750524     100.0%      0.0%      0.0%
 flops   193 x    91 x    91             44750524     100.0%      0.0%      0.0%
 flops    91 x   193 x    91             44750524     100.0%      0.0%      0.0%
 flops    30 x   240 x    30             48384000     100.0%      0.0%      0.0%
 flops    30 x   240 x    35             56448000     100.0%      0.0%      0.0%
 flops    30 x   280 x    30             56448000     100.0%      0.0%      0.0%
 flops    35 x   240 x    30             58464000     100.0%      0.0%      0.0%
 flops    30 x   280 x    35             65856000     100.0%      0.0%      0.0%
 flops    35 x   240 x    35             68208000     100.0%      0.0%      0.0%
 flops    35 x   280 x    30             68208000     100.0%      0.0%      0.0%
 flops    35 x   280 x    35             79576000     100.0%      0.0%      0.0%
 flops   193 x    91 x   193             94910452     100.0%      0.0%      0.0%
 flops    91 x   193 x   193             94910452     100.0%      0.0%      0.0%
 flops   193 x   193 x    91             94910452     100.0%      0.0%      0.0%
 flops    91 x    91 x   117            135642780     100.0%      0.0%      0.0%
 flops   193 x   193 x   193            201293596     100.0%      0.0%      0.0%
 flops   193 x    91 x   117            287681940     100.0%      0.0%      0.0%
 flops    91 x   193 x   117            287681940     100.0%      0.0%      0.0%
 flops   284 x    65 x    30            372153600     100.0%      0.0%      0.0%
 flops    30 x   210 x    30            381024000     100.0%      0.0%      0.0%
 flops   284 x    65 x    35            434179200     100.0%      0.0%      0.0%
 flops    30 x   210 x    35            444528000     100.0%      0.0%      0.0%
 flops    30 x   245 x    30            444528000     100.0%      0.0%      0.0%
 flops    35 x   210 x    30            460404000     100.0%      0.0%      0.0%
 flops    30 x   245 x    35            518616000     100.0%      0.0%      0.0%
 flops    35 x   210 x    35            537138000     100.0%      0.0%      0.0%
 flops    35 x   245 x    30            537138000     100.0%      0.0%      0.0%
 flops   284 x    65 x    91            564432960     100.0%      0.0%      0.0%
 flops   193 x   193 x   117            610138620     100.0%      0.0%      0.0%
 flops    35 x   245 x    35            626661000     100.0%      0.0%      0.0%
 flops    91 x    91 x   104            843999520     100.0%      0.0%      0.0%
 flops   284 x    65 x   193           1197094080     100.0%      0.0%      0.0%
 flops   193 x    91 x   104           1790020960     100.0%      0.0%      0.0%
 flops    91 x   193 x   104           1790020960     100.0%      0.0%      0.0%
 flops   193 x   193 x   104           3796418080     100.0%      0.0%      0.0%
 flops inhomo. stacks                           0       0.0%      0.0%      0.0%
 flops total                        17.203357E+09     100.0%      0.0%      0.0%
 flops max/rank                      3.554717E+09     100.0%      0.0%      0.0%
 matmuls inhomo. stacks                         0       0.0%      0.0%      0.0%
 matmuls total                              12496     100.0%      0.0%      0.0%
 number of processed stacks                 12496     100.0%      0.0%      0.0%
 average stack size                                     1.0       0.0       0.0
 marketing flops                    17.274862E+09
 -------------------------------------------------------------------------------
 # multiplications                            566
 max memory usage/rank             332.058624E+06
 # max total images/rank                        5
 # max 3D layers                                1
 # MPI messages exchanged                  690360
 MPI messages size (bytes):
  total size                         1.640199E+09
  min size                           0.000000E+00
  max size                         438.496000E+03
  average size                       2.375860E+03
 MPI breakdown and total messages size (bytes):
             size <=      128              677832                        0
       128 < size <=     8192                  30                    28080
      8192 < size <=    32768                2082                 35139000
     32768 < size <=   131072                7056                521015040
    131072 < size <=  4194304                3360               1084016640
   4194304 < size <= 16777216                   0                        0
  16777216 < size                               0                        0
 -------------------------------------------------------------------------------

 *** WARNING in dbcsr_mm.F:278 :: Using a non-square number of MPI ranks ***
 *** might lead to poor performance. Used ranks: 40 Suggested: 36 81     ***

 -------------------------------------------------------------------------------
 -                                                                             -
 -                      DBCSR MESSAGE PASSING PERFORMANCE                      -
 -                                                                             -
 -------------------------------------------------------------------------------

 ROUTINE             CALLS      AVE VOLUME [Bytes]
 MP_Group               26
 MP_Bcast               50                     12.
 MP_Allreduce         3267                      9.
 MP_Alltoall          1924                  36974.
 MP_Wait             38688
 MP_ISend            36782                   5837.
 MP_IRecv            36782                     61.
 MP_Memory           59322
 -------------------------------------------------------------------------------


 MEMORY| Estimated peak process memory [MiB]                                 317

 -------------------------------------------------------------------------------
 ----                             MULTIGRID INFO                            ----
 -------------------------------------------------------------------------------
 count for grid        1:         145306          cutoff [a.u.]          200.00
 count for grid        2:          44184          cutoff [a.u.]           66.67
 count for grid        3:          26021          cutoff [a.u.]           22.22
 count for grid        4:          19605          cutoff [a.u.]            7.41
 total gridlevel count  :         235116

 -------------------------------------------------------------------------------
 -                                                                             -
 -                         MESSAGE PASSING PERFORMANCE                         -
 -                                                                             -
 -------------------------------------------------------------------------------

 ROUTINE             CALLS      AVE VOLUME [Bytes]
 MP_Group                5
 MP_Bcast              180                3156668.
 MP_Allreduce          342                   8979.
 MP_Sync                72
 MP_Alltoall           123                2305347.
 MP_ISendRecv          468                  36319.
 MP_Wait              1368
 MP_comm_split          10
 MP_ISend             5244                  33806.
 MP_IRecv             4154                 119790.
 MP_Recv                 1                    520.
 -------------------------------------------------------------------------------


 -------------------------------------------------------------------------------
 -                                                                             -
 -                           R E F E R E N C E S                               -
 -                                                                             -
 -------------------------------------------------------------------------------
 
 CP2K version 7.0 (Development Version), the CP2K developers group (2018).
 CP2K is freely available from https://www.cp2k.org/ .

 Schuett, Ole; Messmer, Peter; Hutter, Juerg; VandeVondele, Joost. 
 Electronic Structure Calculations on Graphics Processing Units, John Wiley & Sons, Ltd, 173-190 (2016). 
 GPU-Accelerated Sparse Matrix-Matrix Multiplication for Linear Scaling Density Functional Theory.
 https://dx.doi.org/10.1002/9781118670712.ch8


 Del Ben, M; Schuett, O; Wentz, T; Messmer, P; Hutter, J;
 VandeVondele, J. 
 COMPUTER PHYSICS COMMUNICATIONS, 187, 120-129 (2015). 
 Enabling simulation at the fifth rung of DFT: Large scale RPA
 calculations with excellent time to solution.
 https://dx.doi.org/10.1016/j.cpc.2014.10.021


 Borstnik, U; VandeVondele, J; Weber, V; Hutter, J. 
 PARALLEL COMPUTING, 40 (5-6), 47-58 (2014). 
 Sparse matrix multiplication: The distributed block-compressed sparse
 row library.
 https://dx.doi.org/10.1016/j.parco.2014.03.012


 Hutter, J; Iannuzzi, M; Schiffmann, F; VandeVondele, J. 
 WILEY INTERDISCIPLINARY REVIEWS-COMPUTATIONAL MOLECULAR SCIENCE, 4 (1), 15-25 (2014). 
 CP2K: atomistic simulations of condensed matter systems.
 https://dx.doi.org/10.1002/wcms.1159


 Del Ben, M; Hutter, J; VandeVondele, J. 
 JOURNAL OF CHEMICAL THEORY AND COMPUTATION, 9 (6), 2654-2671 (2013). 
 Electron Correlation in the Condensed Phase from a Resolution of
 Identity Approach Based on the Gaussian and Plane Waves Scheme.
 https://dx.doi.org/10.1021/ct4002202


 Del Ben, M; Hutter, J; VandeVondele, J. 
 JOURNAL OF CHEMICAL THEORY AND COMPUTATION, 8 (11), 4177-4188 (2012). 
 Second-Order Moller-Plesset Perturbation Theory in the Condensed Phase:
 An Efficient and Massively Parallel Gaussian and Plane Waves Approach.
 https://dx.doi.org/10.1021/ct300531w


 Guidon, M; Hutter, J; VandeVondele, J. 
 JOURNAL OF CHEMICAL THEORY AND COMPUTATION, 5 (11), 3010-3021 (2009). 
 Robust Periodic Hartree-Fock Exchange for Large-Scale Simulations Using
 Gaussian Basis Sets.
 https://dx.doi.org/10.1021/ct900494g


 Guidon, M; Schiffmann, F; Hutter, J; VandeVondele, J. 
 JOURNAL OF CHEMICAL PHYSICS, 128 (21), 214104 (2008). 
 Ab initio molecular dynamics using hybrid density functionals.
 https://dx.doi.org/10.1063/1.2931945


 Frigo, M; Johnson, SG. 
 PROCEEDINGS OF THE IEEE, 93 (2), 216-231 (2005). 
 The design and implementation of FFTW3.
 https://dx.doi.org/10.1109/JPROC.2004.840301


 Lippert, G; Hutter, J; Parrinello, M. 
 THEORETICAL CHEMISTRY ACCOUNTS, 103 (2), 124-140 (1999). 
 The Gaussian and augmented-plane-wave density functional method for ab
 initio molecular dynamics simulations.
 https://dx.doi.org/10.1007/s002140050523


 Krack, M; Parrinello, M. 
 PHYSICAL CHEMISTRY CHEMICAL PHYSICS, 2 (10), 2105-2112 (2000). 
 All-electron ab-initio molecular dynamics.
 https://dx.doi.org/10.1039/b001167n


 Martyna, GJ; Tuckerman, ME. 
 JOURNAL OF CHEMICAL PHYSICS, 110 (6), 2810-2821 (1999). 
 A reciprocal space based method for treating long range interactions in
 ab initio and force-field-based calculations in clusters.
 https://dx.doi.org/10.1063/1.477923


 Perdew, JP; Burke, K; Ernzerhof, M. 
 PHYSICAL REVIEW LETTERS, 77 (18), 3865-3868 (1996). 
 Generalized gradient approximation made simple.
 https://dx.doi.org/10.1103/PhysRevLett.77.3865


 -------------------------------------------------------------------------------
 -                                                                             -
 -                                T I M I N G                                  -
 -                                                                             -
 -------------------------------------------------------------------------------
 SUBROUTINE                       CALLS  ASD         SELF TIME        TOTAL TIME
                                MAXIMUM       AVERAGE  MAXIMUM  AVERAGE  MAXIMUM
 CP2K                                 1  1.0    0.023    0.030   15.247   15.248
 qs_energies                          1  2.0    0.000    0.001   14.408   14.408
 mp2_main                             1  3.0    0.000    0.000   11.734   11.741
 mp2_gpw_main                         1  4.0    0.000    0.001    6.162    6.162
 rpa_ri_compute_en                    1  5.0    0.000    0.000    5.909    5.909
 rpa_num_int                          1  6.0    0.001    0.002    5.908    5.908
 compute_vec_Sigma_x_minus_vxc_       1  4.0    0.000    0.000    5.564    5.564
 integrate_four_center                1  5.0    0.002    0.003    4.945    4.945
 calc_screening_functions             1  6.0    1.065    1.225    2.411    2.798
 powell_optimize                 503727  7.0    2.144    2.556    2.144    2.556
 qs_ks_build_kohn_sham_matrix         2  6.0    0.001    0.001    2.330    2.331
 dbcsr_multiply_generic             566  9.8    0.023    0.027    1.836    2.207
 scf_env_do_scf                       1  3.0    0.000    0.000    2.038    2.038
 scf_env_do_scf_inner_loop            1  4.0    0.000    0.001    2.038    2.038
 GW_postprocessing                    1  7.0    0.000    0.000    1.969    1.969
 compute_self_energy_im_time_gw       1  8.0    0.001    0.002    1.968    1.968
 calc_pair_dist_radii                 1  6.0    0.725    0.873    1.523    1.892
 qs_ks_update_qs_env                  1  5.0    0.000    0.000    1.717    1.717
 rebuild_ks_matrix                    1  6.0    0.000    0.000    1.716    1.717
 multiply_cannon                    566 10.8    0.083    0.095    1.093    1.655
 mp_sum_l                          2790 10.8    0.941    1.594    0.941    1.594
 pw_transfer                         39  8.7    0.003    0.004    1.428    1.492
 mp_sum_dm                           18  7.6    1.026    1.476    1.026    1.476
 fft_wrap_pw1pw2                     31 10.0    0.000    0.001    1.399    1.464
 integrate_four_center_load           1  6.0    0.000    0.000    0.690    1.220
 hfx_load_balance                     1  7.0    0.000    0.000    0.690    1.220
 hfx_load_balance_range               1  8.0    0.000    0.005    0.675    1.205
 mp_waitall_1                     39340 13.4    0.568    1.180    0.568    1.180
 fft_wrap_pw1pw2_200                 18 10.9    0.087    0.107    1.121    1.174
 fft3d_ps                            31 12.0    0.469    0.560    1.031    1.147
 rs_pw_transfer                      22  8.7    0.001    0.001    1.092    1.129
 multiply_cannon_metrocomm3       10503 11.9    0.014    0.016    0.427    1.104
 compute_self_energy_im_time_gw     168  9.0    0.000    0.001    0.755    0.989
 mp_sum_d                           817  5.3    0.534    0.871    0.534    0.871
 get_l_sq_wghts_cos_tf_t_to_w         1  7.0    0.303    0.838    0.839    0.843
 rpa_num_int_im_t_alloc_mat_gw        1  7.0    0.000    0.000    0.025    0.768
 allocate_matrices_gw_im_time         1  8.0    0.000    0.000    0.025    0.768
 get_mat_3c_overl_int_gw              1  9.0    0.000    0.000    0.025    0.768
 fill_mat_3c_overl_int_gw             1 10.0    0.000    0.000    0.022    0.765
 cp_fm_copy_general                   2  8.0    0.000    0.000    0.744    0.764
 rpa_num_int_im_t_alloc_mat_24        1  7.0    0.000    0.000    0.744    0.764
 cp_fm_start_copy_general             2  9.0    0.000    0.001    0.744    0.764
 mp_allgather_i                       4 10.0    0.744    0.764    0.744    0.764
 GW3c_fill_mat                        1 11.0    0.009    0.346    0.019    0.761
 get_l_sq_wghts_sin_tf_t_to_w         1  7.0    0.287    0.754    0.755    0.755
 get_l_sq_wghts_cos_tf_w_to_t         1  7.0    0.286    0.751    0.753    0.753
 multiply_cannon_metrocomm1       10503 11.9    0.006    0.007    0.088    0.740
 mp_sum_dv                           40  8.0    0.509    0.737    0.509    0.737
 multiply_cannon_multrec          10503 11.9    0.102    0.723    0.163    0.728
 qs_init_subsys                       1  2.0    0.003    0.004    0.658    0.659
 mp_alltoall_z22v                    31 14.0    0.428    0.646    0.428    0.646
 qs_vxc_create                        2  7.0    0.000    0.000    0.640    0.640
 xc_vxc_pw_create                     1  9.0    0.006    0.008    0.640    0.640
 qs_rho_update_rho                    2  5.0    0.000    0.000    0.625    0.625
 mp_waitany                         632 10.6    0.455    0.624    0.455    0.624
 calculate_rho_elec                   2  6.0    0.007    0.042    0.623    0.623
 dbcsr_trace_a_b_d                  339 10.0    0.001    0.010    0.332    0.615
 compute_self_energy_im_time_gw     168  9.0    0.000    0.000    0.325    0.607
 compute_mat_P_omega                  1  7.0    0.000    0.000    0.588    0.590
 qs_env_setup                         1  3.0    0.000    0.000    0.550    0.582
 density_rs2pw                        2  7.0    0.000    0.000    0.563    0.582
 qs_env_rebuild_pw_env                2  3.5    0.000    0.000    0.549    0.582
 pw_env_rebuild                       1  5.0    0.001    0.001    0.549    0.581
 make_m2s                          1132 10.8    0.022    0.026    0.422    0.545
 sum_up_and_integrate                 2  7.0    0.003    0.003    0.482    0.500
 integrate_v_rspace                   2  8.0    0.005    0.033    0.480    0.498
 pw_grid_setup                        5  6.0    0.000    0.000    0.493    0.494
 pw_grid_setup_internal               5  7.0    0.008    0.011    0.493    0.494
 compute_self_energy_im_time_gw     168  9.0    0.000    0.001    0.385    0.482
 compute_self_energy_im_time_gw     168  9.0    0.000    0.001    0.469    0.475
 yz_to_x                             16 12.9    0.064    0.084    0.317    0.474
 rs_pw_transfer_RS2PW_200             5  9.2    0.213    0.279    0.439    0.473
 rs_pw_transfer_PW2RS_200             5  9.6    0.227    0.273    0.428    0.468
 potential_pw2rs                      2  9.0    0.000    0.000    0.462    0.463
 prepare_gapw_den                     2  7.0    0.000    0.000    0.390    0.400
 mp_sync                             72  8.7    0.329    0.395    0.329    0.395
 xc_rho_set_and_dset_create           1 10.0    0.004    0.005    0.334    0.384
 compute_mat_P_omega_calc_P          14  8.0    0.000    0.000    0.259    0.383
 pw_poisson_solve                     3  6.0    0.041    0.048    0.376    0.376
 pw_grid_sort                         5  8.0    0.184    0.238    0.275    0.347
 put_rho0_on_grid                     2  8.0    0.002    0.003    0.328    0.338
 init_scf_run                         1  3.0    0.000    0.000    0.337    0.337
 make_images                       1132 11.8    0.030    0.034    0.315    0.333
 scf_env_initial_rho_setup            1  4.0    0.000    0.000    0.332    0.332
 integrate_four_center_main           1  6.0    0.000    0.000    0.033    0.314
 integrate_four_center_bin          128  7.0    0.032    0.314    0.032    0.314
 pw_poisson_rebuild                   3  7.0    0.002    0.004    0.277    0.313
 x_to_yz                             15 13.1    0.067    0.085    0.242    0.313
 MTin_create_screen_fn                1 10.0    0.006    0.009    0.275    0.312
 -------------------------------------------------------------------------------

 The number of warnings for this run is : 2
 
 -------------------------------------------------------------------------------
  **** **** ******  **  PROGRAM ENDED AT                 2019-05-31 16:56:42.127
 ***** ** ***  *** **   PROGRAM RAN ON                                    tcopt4
 **    ****   ******    PROGRAM RAN BY                                   wilhelm
 ***** **    ** ** **   PROGRAM PROCESS ID                                 79730
  **** **  *******  **  PROGRAM STOPPED IN /data/wilhelm/2_job_test/11_GW100/3_c
                                           alcs/43_LiH
