 DBCSR| CPU Multiplication driver                                           BLAS
 DBCSR| Multrec recursion limit                                              512
 DBCSR| Multiplication stack size                                           1000
 DBCSR| Maximum elements for images                                    UNLIMITED
 DBCSR| Multiplicative factor virtual images                                   1
 DBCSR| Use multiplication densification                                       T
 DBCSR| Multiplication size stacks                                             3
 DBCSR| Number of 3D layers                                               SINGLE
 DBCSR| Use MPI memory allocation                                              T
 DBCSR| Use RMA algorithm                                                      F
 DBCSR| Use Communication thread                                               T
 DBCSR| Communication thread load                                             87


  **** **** ******  **  PROGRAM STARTED AT               2019-05-31 12:43:49.253
 ***** ** ***  *** **   PROGRAM STARTED ON                                tcopt4
 **    ****   ******    PROGRAM STARTED BY                               wilhelm
 ***** **    ** ** **   PROGRAM PROCESS ID                                 46574
  **** **  *******  **  PROGRAM STARTED IN /data/wilhelm/2_job_test/11_GW100/3_c
                                           alcs/12_Rb2

 CP2K| version string:                    CP2K version 7.0 (Development Version)
 CP2K| source code revision number:                                  git:026fb12
 CP2K| cp2kflags: libint fftw3 libxc pexsi elpa=201705 parallel mpi3 scalapack q
 CP2K|            uip libderiv_max_am1=5 libint_max_am=6
 CP2K| is freely available from                            https://www.cp2k.org/
 CP2K| Program compiled at                         Sat May 11 13:15:02 CEST 2019
 CP2K| Program compiled on                                                tcopt4
 CP2K| Program compiled for                            local_valgrind_March_2019
 CP2K| Data directory path              /data/wilhelm/1_git_repository/cp2k/data
 CP2K| Input file name                                                    GW.inp

 GLOBAL| Force Environment number                                              1
 GLOBAL| Basis set file name                              BASIS_def2_QZVP_RI_ALL
 GLOBAL| Potential file name                                           POTENTIAL
 GLOBAL| MM Potential file name                                     MM_POTENTIAL
 GLOBAL| Coordinate file name                                         12_Rb2.xyz
 GLOBAL| Method name                                                        CP2K
 GLOBAL| Project name                                                   ALL_ELEC
 GLOBAL| Preferred FFT library                                             FFTW3
 GLOBAL| Preferred diagonalization lib.                                       SL
 GLOBAL| Run type                                                         ENERGY
 GLOBAL| All-to-all communication in single precision                          F
 GLOBAL| FFTs using library dependent lengths                                  F
 GLOBAL| Global print level                                               MEDIUM
 GLOBAL| MPI I/O enabled                                                       T
 GLOBAL| Total number of message passing processes                            24
 GLOBAL| Number of threads for this process                                    1
 GLOBAL| This output is from process                                           0
 GLOBAL| CPU model name :  Intel(R) Xeon(R) CPU E5-2697 v3 @ 2.60GHz

 MEMORY| system memory details [Kb]
 MEMORY|                        rank 0           min           max       average
 MEMORY| MemTotal            396954008     396954008     396954008     396954008
 MEMORY| MemFree             161164000     161164000     161164000     161164000
 MEMORY| Buffers                316108        316108        316108        316108
 MEMORY| Cached               14701000      14701000      14701000      14701000
 MEMORY| Slab                   568276        568276        568276        568276
 MEMORY| SReclaimable           430160        430160        430160        430160
 MEMORY| MemLikelyFree       176611268     176611268     176611268     176611268


 *** Fundamental physical constants (SI units) ***

 *** Literature: B. J. Mohr and B. N. Taylor,
 ***             CODATA recommended values of the fundamental physical
 ***             constants: 2006, Web Version 5.1
 ***             http://physics.nist.gov/constants

 Speed of light in vacuum [m/s]                             2.99792458000000E+08
 Magnetic constant or permeability of vacuum [N/A**2]       1.25663706143592E-06
 Electric constant or permittivity of vacuum [F/m]          8.85418781762039E-12
 Planck constant (h) [J*s]                                  6.62606896000000E-34
 Planck constant (h-bar) [J*s]                              1.05457162825177E-34
 Elementary charge [C]                                      1.60217648700000E-19
 Electron mass [kg]                                         9.10938215000000E-31
 Electron g factor [ ]                                     -2.00231930436220E+00
 Proton mass [kg]                                           1.67262163700000E-27
 Fine-structure constant                                    7.29735253760000E-03
 Rydberg constant [1/m]                                     1.09737315685270E+07
 Avogadro constant [1/mol]                                  6.02214179000000E+23
 Boltzmann constant [J/K]                                   1.38065040000000E-23
 Atomic mass unit [kg]                                      1.66053878200000E-27
 Bohr radius [m]                                            5.29177208590000E-11

 *** Conversion factors ***

 [u] -> [a.u.]                                              1.82288848426455E+03
 [Angstrom] -> [Bohr] = [a.u.]                              1.88972613288564E+00
 [a.u.] = [Bohr] -> [Angstrom]                              5.29177208590000E-01
 [a.u.] -> [s]                                              2.41888432650478E-17
 [a.u.] -> [fs]                                             2.41888432650478E-02
 [a.u.] -> [J]                                              4.35974393937059E-18
 [a.u.] -> [N]                                              8.23872205491840E-08
 [a.u.] -> [K]                                              3.15774647902944E+05
 [a.u.] -> [kJ/mol]                                         2.62549961709828E+03
 [a.u.] -> [kcal/mol]                                       6.27509468713739E+02
 [a.u.] -> [Pa]                                             2.94210107994716E+13
 [a.u.] -> [bar]                                            2.94210107994716E+08
 [a.u.] -> [atm]                                            2.90362800883016E+08
 [a.u.] -> [eV]                                             2.72113838565563E+01
 [a.u.] -> [Hz]                                             6.57968392072181E+15
 [a.u.] -> [1/cm] (wave numbers)                            2.19474631370540E+05
 [a.u./Bohr**2] -> [1/cm]                                   5.14048714338585E+03
 

 CELL_TOP| Volume [angstrom^3]:                                         4096.000
 CELL_TOP| Vector a [angstrom    16.000     0.000     0.000    |a| =      16.000
 CELL_TOP| Vector b [angstrom     0.000    16.000     0.000    |b| =      16.000
 CELL_TOP| Vector c [angstrom     0.000     0.000    16.000    |c| =      16.000
 CELL_TOP| Angle (b,c), alpha [degree]:                                   90.000
 CELL_TOP| Angle (a,c), beta  [degree]:                                   90.000
 CELL_TOP| Angle (a,b), gamma [degree]:                                   90.000
 CELL_TOP| Numerically orthorhombic:                                         YES

 GENERATE|  Preliminary Number of Bonds generated:                             0
 GENERATE|  Achieved consistency in connectivity generation.

 CELL| Volume [angstrom^3]:                                             4096.000
 CELL| Vector a [angstrom]:      16.000     0.000     0.000    |a| =      16.000
 CELL| Vector b [angstrom]:       0.000    16.000     0.000    |b| =      16.000
 CELL| Vector c [angstrom]:       0.000     0.000    16.000    |c| =      16.000
 CELL| Angle (b,c), alpha [degree]:                                       90.000
 CELL| Angle (a,c), beta  [degree]:                                       90.000
 CELL| Angle (a,b), gamma [degree]:                                       90.000
 CELL| Numerically orthorhombic:                                             YES

 CELL_REF| Volume [angstrom^3]:                                         4096.000
 CELL_REF| Vector a [angstrom    16.000     0.000     0.000    |a| =      16.000
 CELL_REF| Vector b [angstrom     0.000    16.000     0.000    |b| =      16.000
 CELL_REF| Vector c [angstrom     0.000     0.000    16.000    |c| =      16.000
 CELL_REF| Angle (b,c), alpha [degree]:                                   90.000
 CELL_REF| Angle (a,c), beta  [degree]:                                   90.000
 CELL_REF| Angle (a,b), gamma [degree]:                                   90.000
 CELL_REF| Numerically orthorhombic:                                         YES

 *******************************************************************************
 *******************************************************************************
 **                                                                           **
 **     #####                         ##              ##                      **
 **    ##   ##            ##          ##              ##                      **
 **   ##     ##                       ##            ######                    **
 **   ##     ##  ##   ##  ##   #####  ##  ##   ####   ##    #####    #####    **
 **   ##     ##  ##   ##  ##  ##      ## ##   ##      ##   ##   ##  ##   ##   **
 **   ##  ## ##  ##   ##  ##  ##      ####     ###    ##   ######   ######    **
 **    ##  ###   ##   ##  ##  ##      ## ##      ##   ##   ##       ##        **
 **     #######   #####   ##   #####  ##  ##  ####    ##    #####   ##        **
 **           ##                                                    ##        **
 **                                                                           **
 **                                                ... make the atoms dance   **
 **                                                                           **
 **            Copyright (C) by CP2K developers group (2000 - 2019)           **
 **                                                                           **
 *******************************************************************************

 DFT| Spin restricted Kohn-Sham (RKS) calculation                            RKS
 DFT| Multiplicity                                                             1
 DFT| Number of spin states                                                    1
 DFT| Charge                                                                   0
 DFT| Self-interaction correction (SIC)                                       NO
 DFT| Cutoffs: density                                              1.000000E-10
 DFT|          gradient                                             1.000000E-10
 DFT|          tau                                                  1.000000E-10
 DFT|          cutoff_smoothing_range                               0.000000E+00
 DFT| XC density smoothing                                                  NONE
 DFT| XC derivatives                                                          PW
 FUNCTIONAL| ROUTINE=NEW
 FUNCTIONAL| PBE:
 FUNCTIONAL| J.P.Perdew, K.Burke, M.Ernzerhof, Phys. Rev. Letter, vol. 77, n 18,
 FUNCTIONAL|  pp. 3865-3868, (1996){spin unpolarized}                           

 QS| Method:                                                                GAPW
 QS| Density plane wave grid type                        NON-SPHERICAL FULLSPACE
 QS| Number of grid levels:                                                    4
 QS| Density cutoff [a.u.]:                                                200.0
 QS| Multi grid cutoff [a.u.]: 1) grid level                               200.0
 QS|                           2) grid level                                66.7
 QS|                           3) grid level                                22.2
 QS|                           4) grid level                                 7.4
 QS| Grid level progression factor:                                          3.0
 QS| Relative density cutoff [a.u.]:                                        25.0
 QS| Consistent realspace mapping and integration 
 QS| Interaction thresholds: eps_pgf_orb:                                1.0E-05
 QS|                         eps_filter_matrix:                          0.0E+00
 QS|                         eps_core_charge:                            1.0E-12
 QS|                         eps_rho_gspace:                             1.0E-10
 QS|                         eps_rho_rspace:                             1.0E-10
 QS|                         eps_gvg_rspace:                             1.0E-05
 QS|                         eps_ppl:                                    1.0E-02
 QS|                         eps_ppnl:                                   1.0E-07
 QS| GAPW|                   eps_fit:                                    1.0E-04
 QS| GAPW|                   eps_iso:                                    1.0E-12
 QS| GAPW|                   eps_svd:                                    1.0E-08
 QS| GAPW|                   eps_cpc:                                    1.0E-10
 QS| GAPW|   atom-r-grid: quadrature:                 GC_LOG                        
 QS| GAPW|      atom-s-grid:  max l :                                          8
 QS| GAPW|      max_l_rho0 :                                                   2


 ATOMIC KIND INFORMATION

  1. Atomic kind: Rb                                    Number of atoms:       2

     Orbital Basis Set                                                 def2-QZVP

       Number of orbital shell sets:                                          30
       Number of orbital shells:                                              30
       Number of primitive Cartesian functions:                               62
       Number of Cartesian basis functions:                                  108
       Number of spherical basis functions:                                   90
       Norm type:                                                              2

       Normalised Cartesian orbitals:

                        Set   Shell   Orbital            Exponent    Coefficient

                          1       1    1s         ***************       0.480051
                                                  16575563.215000       0.962210
                                                   2437208.271700       2.976985
                                                    363485.707690       6.279508
                                                     79638.990746      10.971500
                                                     22115.022716      17.804859
                                                      7196.208681      26.778540
                                                      2608.302953      35.568324
                                                      1072.324901      37.101918
                                                       497.963730      27.906537
                                                       256.355280      12.379001

                          2       1    1s             3265.682058       2.086756
                                                      1001.175839       8.566628
                                                       392.863496      19.191513
                                                       174.336661      22.842450

                          3       1    1s               89.244121      20.694017

                          4       1    1s               38.485103      11.012339

                          5       1    1s               18.622495       6.389082

                          6       1    1s                8.547481       3.562778

                          7       1    1s                4.231656       2.102775

                          8       1    1s                2.021937       1.208470

                          9       1    1s                0.593678       0.482029

                         10       1    1s                0.243844       0.247311

                         11       1    1s                0.074793       0.101930

                         12       1    1s                0.031285       0.053017

                         13       1    1s                0.018088       0.035152

                         14       1    1px           16875.513000      46.010143
                                                      3998.202085      66.988675
                                                      1299.045830      92.166243
                                                       497.028909     115.007809
                                                       211.402215     123.945860
                                                        96.234241     106.944686
                                                        46.018469      64.153909
                                                        22.787025      21.910371
                                                        11.071393       2.789445
                         14       1    1py           16875.513000      46.010143
                                                      3998.202085      66.988675
                                                      1299.045830      92.166243
                                                       497.028909     115.007809
                                                       211.402215     123.945860
                                                        96.234241     106.944686
                                                        46.018469      64.153909
                                                        22.787025      21.910371
                                                        11.071393       2.789445
                         14       1    1pz           16875.513000      46.010143
                                                      3998.202085      66.988675
                                                      1299.045830      92.166243
                                                       497.028909     115.007809
                                                       211.402215     123.945860
                                                        96.234241     106.944686
                                                        46.018469      64.153909
                                                        22.787025      21.910371
                                                        11.071393       2.789445

                         15       1    1px             142.077203      -3.873528
                                                        52.278438      -5.321886
                                                        11.268466       6.333265
                                                         5.555729       5.674793
                                                         2.759267       2.028546
                         15       1    1py             142.077203      -3.873528
                                                        52.278438      -5.321886
                                                        11.268466       6.333265
                                                         5.555729       5.674793
                                                         2.759267       2.028546
                         15       1    1pz             142.077203      -3.873528
                                                        52.278438      -5.321886
                                                        11.268466       6.333265
                                                         5.555729       5.674793
                                                         2.759267       2.028546

                         16       1    1px               3.511218      -1.658128
                                                         2.148591      -0.369403
                                                         1.296032       2.467260
                         16       1    1py               3.511218      -1.658128
                                                         2.148591      -0.369403
                                                         1.296032       2.467260
                         16       1    1pz               3.511218      -1.658128
                                                         2.148591      -0.369403
                                                         1.296032       2.467260

                         17       1    1px               0.625249       0.792513
                         17       1    1py               0.625249       0.792513
                         17       1    1pz               0.625249       0.792513

                         18       1    1px               0.280188       0.290571
                         18       1    1py               0.280188       0.290571
                         18       1    1pz               0.280188       0.290571

                         19       1    1px               0.117689       0.098256
                         19       1    1py               0.117689       0.098256
                         19       1    1pz               0.117689       0.098256

                         20       1    1px               0.033967       0.020786
                         20       1    1py               0.033967       0.020786
                         20       1    1pz               0.033967       0.020786

                         21       1    1px               0.012707       0.006081
                         21       1    1py               0.012707       0.006081
                         21       1    1pz               0.012707       0.006081

                         22       1    1dx2            536.758180     145.866328
                                                       161.579810     156.654232
                                                        62.568086     141.168529
                                                        27.023354     100.577546
                                                        12.360536      52.155538
                                                         5.703591      17.796105
                         22       1    1dxy            536.758180     252.647890
                                                       161.579810     271.333089
                                                        62.568086     244.511065
                                                        27.023354     174.205420
                                                        12.360536      90.336042
                                                         5.703591      30.823758
                         22       1    1dxz            536.758180     252.647890
                                                       161.579810     271.333089
                                                        62.568086     244.511065
                                                        27.023354     174.205420
                                                        12.360536      90.336042
                                                         5.703591      30.823758
                         22       1    1dy2            536.758180     145.866328
                                                       161.579810     156.654232
                                                        62.568086     141.168529
                                                        27.023354     100.577546
                                                        12.360536      52.155538
                                                         5.703591      17.796105
                         22       1    1dyz            536.758180     252.647890
                                                       161.579810     271.333089
                                                        62.568086     244.511065
                                                        27.023354     174.205420
                                                        12.360536      90.336042
                                                         5.703591      30.823758
                         22       1    1dz2            536.758180     145.866328
                                                       161.579810     156.654232
                                                        62.568086     141.168529
                                                        27.023354     100.577546
                                                        12.360536      52.155538
                                                         5.703591      17.796105

                         23       1    1dx2              2.598359       8.752518
                         23       1    1dxy              2.598359      15.159807
                         23       1    1dxz              2.598359      15.159807
                         23       1    1dy2              2.598359       8.752518
                         23       1    1dyz              2.598359      15.159807
                         23       1    1dz2              2.598359       8.752518

                         24       1    1dx2              1.101500       1.949317
                         24       1    1dxy              1.101500       3.376315
                         24       1    1dxz              1.101500       3.376315
                         24       1    1dy2              1.101500       1.949317
                         24       1    1dyz              1.101500       3.376315
                         24       1    1dz2              1.101500       1.949317

                         25       1    1dx2              0.258147       0.153879
                         25       1    1dxy              0.258147       0.266525
                         25       1    1dxz              0.258147       0.266525
                         25       1    1dy2              0.258147       0.153879
                         25       1    1dyz              0.258147       0.266525
                         25       1    1dz2              0.258147       0.153879

                         26       1    1dx2              0.046866       0.007770
                         26       1    1dxy              0.046866       0.013458
                         26       1    1dxz              0.046866       0.013458
                         26       1    1dy2              0.046866       0.007770
                         26       1    1dyz              0.046866       0.013458
                         26       1    1dz2              0.046866       0.007770

                         27       1    1dx2              0.013053       0.000830
                         27       1    1dxy              0.013053       0.001437
                         27       1    1dxz              0.013053       0.001437
                         27       1    1dy2              0.013053       0.000830
                         27       1    1dyz              0.013053       0.001437
                         27       1    1dz2              0.013053       0.000830

                         28       1    1fx3              0.400000       0.187322
                         28       1    1fx2y             0.400000       0.418865
                         28       1    1fx2z             0.400000       0.418865
                         28       1    1fxy2             0.400000       0.418865
                         28       1    1fxyz             0.400000       0.725496
                         28       1    1fxz2             0.400000       0.418865
                         28       1    1fy3              0.400000       0.187322
                         28       1    1fy2z             0.400000       0.418865
                         28       1    1fyz2             0.400000       0.418865
                         28       1    1fz3              0.400000       0.187322

                         29       1    1fx3              0.090000       0.006531
                         29       1    1fx2y             0.090000       0.014604
                         29       1    1fx2z             0.090000       0.014604
                         29       1    1fxy2             0.090000       0.014604
                         29       1    1fxyz             0.090000       0.025296
                         29       1    1fxz2             0.090000       0.014604
                         29       1    1fy3              0.090000       0.006531
                         29       1    1fy2z             0.090000       0.014604
                         29       1    1fyz2             0.090000       0.014604
                         29       1    1fz3              0.090000       0.006531

                         30       1    1gx4              0.330000       0.052765
                         30       1    1gx3y             0.330000       0.139604
                         30       1    1gx3z             0.330000       0.139604
                         30       1    1gx2y2            0.330000       0.180228
                         30       1    1gx2yz            0.330000       0.312164
                         30       1    1gx2z2            0.330000       0.180228
                         30       1    1gxy3             0.330000       0.139604
                         30       1    1gxy2z            0.330000       0.312164
                         30       1    1gxyz2            0.330000       0.312164
                         30       1    1gxz3             0.330000       0.139604
                         30       1    1gy4              0.330000       0.052765
                         30       1    1gy3z             0.330000       0.139604
                         30       1    1gy2z2            0.330000       0.180228
                         30       1    1gyz3             0.330000       0.139604
                         30       1    1gz4              0.330000       0.052765

     RI Auxiliary Basis Set                                                RI-5Z

       Number of orbital shell sets:                                         124
       Number of orbital shells:                                             124
       Number of primitive Cartesian functions:                              124
       Number of Cartesian basis functions:                                 1138
       Number of spherical basis functions:                                  716
       Norm type:                                                              2

       Normalised Cartesian orbitals:

                        Set   Shell   Orbital            Exponent    Coefficient

                          1       1    1s          1000000.000000   22537.725872

                          2       1    1s           500000.000000   13401.011981

                          3       1    1s           200000.000000    6740.352183

                          4       1    1s           100000.000000    4007.837387

                          5       1    1s            50000.000000    2383.074368

                          6       1    1s            20000.000000    1198.622950

                          7       1    1s            10000.000000     712.705470

                          8       1    1s             5000.000000     423.777208

                          9       1    1s             2000.000000     213.148651

                         10       1    1s             1000.000000     126.738946

                         11       1    1s              500.000000      75.359428

                         12       1    1s              200.000000      37.903786

                         13       1    1s              100.000000      22.537726

                         14       1    1s               50.000000      13.401012

                         15       1    1s               20.000000       6.740352

                         16       1    1s               10.000000       4.007837

                         17       1    1s                5.000000       2.383074

                         18       1    1s                2.000000       1.198623

                         19       1    1s                1.000000       0.712705

                         20       1    1s                0.500000       0.423777

                         21       1    1s                0.200000       0.213149

                         22       1    1s                0.100000       0.126739

                         23       1    1s                0.050000       0.075359

                         24       1    1s                0.020000       0.037904

                         25       1    1s                0.010000       0.022538

                         26       1    1px          500000.00000018951892.893596
                         26       1    1py          500000.00000018951892.893596
                         26       1    1pz          500000.00000018951892.893596

                         27       1    1px          200000.000000 6028754.269202
                         27       1    1py          200000.000000 6028754.269202
                         27       1    1pz          200000.000000 6028754.269202

                         28       1    1px          100000.000000 2534778.926709
                         28       1    1py          100000.000000 2534778.926709
                         28       1    1pz          100000.000000 2534778.926709

                         29       1    1px           50000.000000 1065743.256465
                         29       1    1py           50000.000000 1065743.256465
                         29       1    1pz           50000.000000 1065743.256465

                         30       1    1px           20000.000000  339021.766499
                         30       1    1py           20000.000000  339021.766499
                         30       1    1pz           20000.000000  339021.766499

                         31       1    1px           10000.000000  142541.094071
                         31       1    1py           10000.000000  142541.094071
                         31       1    1pz           10000.000000  142541.094071

                         32       1    1px            5000.000000   59931.147515
                         32       1    1py            5000.000000   59931.147515
                         32       1    1pz            5000.000000   59931.147515

                         33       1    1px            2000.000000   19064.594944
                         33       1    1py            2000.000000   19064.594944
                         33       1    1pz            2000.000000   19064.594944

                         34       1    1px            1000.000000    8015.674773
                         34       1    1py            1000.000000    8015.674773
                         34       1    1pz            1000.000000    8015.674773

                         35       1    1px             500.000000    3370.176091
                         35       1    1py             500.000000    3370.176091
                         35       1    1pz             500.000000    3370.176091

                         36       1    1px             200.000000    1072.080959
                         36       1    1py             200.000000    1072.080959
                         36       1    1pz             200.000000    1072.080959

                         37       1    1px             100.000000     450.754517
                         37       1    1py             100.000000     450.754517
                         37       1    1pz             100.000000     450.754517

                         38       1    1px              50.000000     189.518929
                         38       1    1py              50.000000     189.518929
                         38       1    1pz              50.000000     189.518929

                         39       1    1px              20.000000      60.287543
                         39       1    1py              20.000000      60.287543
                         39       1    1pz              20.000000      60.287543

                         40       1    1px              10.000000      25.347789
                         40       1    1py              10.000000      25.347789
                         40       1    1pz              10.000000      25.347789

                         41       1    1px               5.000000      10.657433
                         41       1    1py               5.000000      10.657433
                         41       1    1pz               5.000000      10.657433

                         42       1    1px               2.000000       3.390218
                         42       1    1py               2.000000       3.390218
                         42       1    1pz               2.000000       3.390218

                         43       1    1px               1.000000       1.425411
                         43       1    1py               1.000000       1.425411
                         43       1    1pz               1.000000       1.425411

                         44       1    1px               0.500000       0.599311
                         44       1    1py               0.500000       0.599311
                         44       1    1pz               0.500000       0.599311

                         45       1    1px               0.200000       0.190646
                         45       1    1py               0.200000       0.190646
                         45       1    1pz               0.200000       0.190646

                         46       1    1px               0.100000       0.080157
                         46       1    1py               0.100000       0.080157
                         46       1    1pz               0.100000       0.080157

                         47       1    1px               0.050000       0.033702
                         47       1    1py               0.050000       0.033702
                         47       1    1pz               0.050000       0.033702

                         48       1    1px               0.020000       0.010721
                         48       1    1py               0.020000       0.010721
                         48       1    1pz               0.020000       0.010721

                         49       1    1px               0.010000       0.004508
                         49       1    1py               0.010000       0.004508
                         49       1    1pz               0.010000       0.004508

                         50       1    1dx2         100000.000000***************
                         50       1    1dxy         100000.000000***************
                         50       1    1dxz         100000.000000***************
                         50       1    1dy2         100000.000000***************
                         50       1    1dyz         100000.000000***************
                         50       1    1dz2         100000.000000***************

                         51       1    1dx2          50000.000000***************
                         51       1    1dxy          50000.000000***************
                         51       1    1dxz          50000.000000***************
                         51       1    1dy2          50000.000000***************
                         51       1    1dyz          50000.000000***************
                         51       1    1dz2          50000.000000***************

                         52       1    1dx2          20000.00000055362022.641303
                         52       1    1dxy          20000.00000095889836.024516
                         52       1    1dxz          20000.00000095889836.024516
                         52       1    1dy2          20000.00000055362022.641303
                         52       1    1dyz          20000.00000095889836.024516
                         52       1    1dz2          20000.00000055362022.641303

                         53       1    1dx2          10000.00000016459227.806495
                         53       1    1dxy          10000.00000028508218.814200
                         53       1    1dxz          10000.00000028508218.814200
                         53       1    1dy2          10000.00000016459227.806495
                         53       1    1dyz          10000.00000028508218.814200
                         53       1    1dz2          10000.00000016459227.806495

                         54       1    1dx2           5000.000000 4893357.703734
                         54       1    1dxy           5000.000000 8475544.162475
                         54       1    1dxz           5000.000000 8475544.162475
                         54       1    1dy2           5000.000000 4893357.703734
                         54       1    1dyz           5000.000000 8475544.162475
                         54       1    1dz2           5000.000000 4893357.703734

                         55       1    1dx2           2000.000000  984491.449611
                         55       1    1dxy           2000.000000 1705189.210344
                         55       1    1dxz           2000.000000 1705189.210344
                         55       1    1dy2           2000.000000  984491.449611
                         55       1    1dyz           2000.000000 1705189.210344
                         55       1    1dz2           2000.000000  984491.449611

                         56       1    1dx2           1000.000000  292691.059134
                         56       1    1dxy           1000.000000  506955.785342
                         56       1    1dxz           1000.000000  506955.785342
                         56       1    1dy2           1000.000000  292691.059134
                         56       1    1dyz           1000.000000  506955.785342
                         56       1    1dz2           1000.000000  292691.059134

                         57       1    1dx2            500.000000   87017.572505
                         57       1    1dxy            500.000000  150718.856730
                         57       1    1dxz            500.000000  150718.856730
                         57       1    1dy2            500.000000   87017.572505
                         57       1    1dyz            500.000000  150718.856730
                         57       1    1dz2            500.000000   87017.572505

                         58       1    1dx2            200.000000   17507.008742
                         58       1    1dxy            200.000000   30323.028630
                         58       1    1dxz            200.000000   30323.028630
                         58       1    1dy2            200.000000   17507.008742
                         58       1    1dyz            200.000000   30323.028630
                         58       1    1dz2            200.000000   17507.008742

                         59       1    1dx2            100.000000    5204.864840
                         59       1    1dxy            100.000000    9015.090349
                         59       1    1dxz            100.000000    9015.090349
                         59       1    1dy2            100.000000    5204.864840
                         59       1    1dyz            100.000000    9015.090349
                         59       1    1dz2            100.000000    5204.864840

                         60       1    1dx2             50.000000    1547.415575
                         60       1    1dxy             50.000000    2680.202396
                         60       1    1dxz             50.000000    2680.202396
                         60       1    1dy2             50.000000    1547.415575
                         60       1    1dyz             50.000000    2680.202396
                         60       1    1dz2             50.000000    1547.415575

                         61       1    1dx2             20.000000     311.323532
                         61       1    1dxy             20.000000     539.228175
                         61       1    1dxz             20.000000     539.228175
                         61       1    1dy2             20.000000     311.323532
                         61       1    1dyz             20.000000     539.228175
                         61       1    1dz2             20.000000     311.323532

                         62       1    1dx2             10.000000      92.557040
                         62       1    1dxy             10.000000     160.313495
                         62       1    1dxz             10.000000     160.313495
                         62       1    1dy2             10.000000      92.557040
                         62       1    1dyz             10.000000     160.313495
                         62       1    1dz2             10.000000      92.557040

                         63       1    1dx2              5.000000      27.517373
                         63       1    1dxy              5.000000      47.661487
                         63       1    1dxz              5.000000      47.661487
                         63       1    1dy2              5.000000      27.517373
                         63       1    1dyz              5.000000      47.661487
                         63       1    1dz2              5.000000      27.517373

                         64       1    1dx2              2.000000       5.536202
                         64       1    1dxy              2.000000       9.588984
                         64       1    1dxz              2.000000       9.588984
                         64       1    1dy2              2.000000       5.536202
                         64       1    1dyz              2.000000       9.588984
                         64       1    1dz2              2.000000       5.536202

                         65       1    1dx2              1.000000       1.645923
                         65       1    1dxy              1.000000       2.850822
                         65       1    1dxz              1.000000       2.850822
                         65       1    1dy2              1.000000       1.645923
                         65       1    1dyz              1.000000       2.850822
                         65       1    1dz2              1.000000       1.645923

                         66       1    1dx2              0.500000       0.489336
                         66       1    1dxy              0.500000       0.847554
                         66       1    1dxz              0.500000       0.847554
                         66       1    1dy2              0.500000       0.489336
                         66       1    1dyz              0.500000       0.847554
                         66       1    1dz2              0.500000       0.489336

                         67       1    1dx2              0.200000       0.098449
                         67       1    1dxy              0.200000       0.170519
                         67       1    1dxz              0.200000       0.170519
                         67       1    1dy2              0.200000       0.098449
                         67       1    1dyz              0.200000       0.170519
                         67       1    1dz2              0.200000       0.098449

                         68       1    1dx2              0.100000       0.029269
                         68       1    1dxy              0.100000       0.050696
                         68       1    1dxz              0.100000       0.050696
                         68       1    1dy2              0.100000       0.029269
                         68       1    1dyz              0.100000       0.050696
                         68       1    1dz2              0.100000       0.029269

                         69       1    1dx2              0.050000       0.008702
                         69       1    1dxy              0.050000       0.015072
                         69       1    1dxz              0.050000       0.015072
                         69       1    1dy2              0.050000       0.008702
                         69       1    1dyz              0.050000       0.015072
                         69       1    1dz2              0.050000       0.008702

                         70       1    1fx3          20000.000000***************
                         70       1    1fx2y         20000.000000***************
                         70       1    1fx2z         20000.000000***************
                         70       1    1fxy2         20000.000000***************
                         70       1    1fxyz         20000.000000***************
                         70       1    1fxz2         20000.000000***************
                         70       1    1fy3          20000.000000***************
                         70       1    1fy2z         20000.000000***************
                         70       1    1fyz2         20000.000000***************
                         70       1    1fz3          20000.000000***************

                         71       1    1fx3          10000.000000***************
                         71       1    1fx2y         10000.000000***************
                         71       1    1fx2z         10000.000000***************
                         71       1    1fxy2         10000.000000***************
                         71       1    1fxyz         10000.000000***************
                         71       1    1fxz2         10000.000000***************
                         71       1    1fy3          10000.000000***************
                         71       1    1fy2z         10000.000000***************
                         71       1    1fyz2         10000.000000***************
                         71       1    1fz3          10000.000000***************

                         72       1    1fx3           5000.000000***************
                         72       1    1fx2y          5000.000000***************
                         72       1    1fx2z          5000.000000***************
                         72       1    1fxy2          5000.000000***************
                         72       1    1fxyz          5000.000000***************
                         72       1    1fxz2          5000.000000***************
                         72       1    1fy3           5000.000000***************
                         72       1    1fy2z          5000.000000***************
                         72       1    1fyz2          5000.000000***************
                         72       1    1fz3           5000.000000***************

                         73       1    1fx3           2000.00000039379657.984455
                         73       1    1fx2y          2000.00000088055592.183934
                         73       1    1fx2z          2000.00000088055592.183934
                         73       1    1fxy2          2000.00000088055592.183934
                         73       1    1fxyz          2000.000000***************
                         73       1    1fxz2          2000.00000088055592.183934
                         73       1    1fy3           2000.00000039379657.984455
                         73       1    1fy2z          2000.00000088055592.183934
                         73       1    1fyz2          2000.00000088055592.183934
                         73       1    1fz3           2000.00000039379657.984455

                         74       1    1fx3           1000.000000 8278553.308261
                         74       1    1fx2y          1000.00000018511407.952628
                         74       1    1fx2z          1000.00000018511407.952628
                         74       1    1fxy2          1000.00000018511407.952628
                         74       1    1fxyz          1000.00000032062699.093587
                         74       1    1fxz2          1000.00000018511407.952628
                         74       1    1fy3           1000.000000 8278553.308261
                         74       1    1fy2z          1000.00000018511407.952628
                         74       1    1fyz2          1000.00000018511407.952628
                         74       1    1fz3           1000.000000 8278553.308261

                         75       1    1fx3            500.000000 1740351.450101
                         75       1    1fx2y           500.000000 3891544.147166
                         75       1    1fx2z           500.000000 3891544.147166
                         75       1    1fxy2           500.000000 3891544.147166
                         75       1    1fxyz           500.000000 6740352.182789
                         75       1    1fxz2           500.000000 3891544.147166
                         75       1    1fy3            500.000000 1740351.450101
                         75       1    1fy2z           500.000000 3891544.147166
                         75       1    1fyz2           500.000000 3891544.147166
                         75       1    1fz3            500.000000 1740351.450101

                         76       1    1fx3            200.000000  221448.090565
                         76       1    1fx2y           200.000000  495172.983991
                         76       1    1fx2z           200.000000  495172.983991
                         76       1    1fxy2           200.000000  495172.983991
                         76       1    1fxyz           200.000000  857664.766809
                         76       1    1fxz2           200.000000  495172.983991
                         76       1    1fy3            200.000000  221448.090565
                         76       1    1fy2z           200.000000  495172.983991
                         76       1    1fyz2           200.000000  495172.983991
                         76       1    1fz3            200.000000  221448.090565

                         77       1    1fx3            100.000000   46553.726380
                         77       1    1fx2y           100.000000  104097.296792
                         77       1    1fx2z           100.000000  104097.296792
                         77       1    1fxy2           100.000000  104097.296792
                         77       1    1fxyz           100.000000  180301.806975
                         77       1    1fxz2           100.000000  104097.296792
                         77       1    1fy3            100.000000   46553.726380
                         77       1    1fy2z           100.000000  104097.296792
                         77       1    1fyz2           100.000000  104097.296792
                         77       1    1fz3            100.000000   46553.726380

                         78       1    1fx3             50.000000    9786.715407
                         78       1    1fx2y            50.000000   21883.760928
                         78       1    1fx2z            50.000000   21883.760928
                         78       1    1fxy2            50.000000   21883.760928
                         78       1    1fxyz            50.000000   37903.785787
                         78       1    1fxz2            50.000000   21883.760928
                         78       1    1fy3             50.000000    9786.715407
                         78       1    1fy2z            50.000000   21883.760928
                         78       1    1fyz2            50.000000   21883.760928
                         78       1    1fz3             50.000000    9786.715407

                         79       1    1fx3             20.000000    1245.294127
                         79       1    1fx2y            20.000000    2784.562320
                         79       1    1fx2z            20.000000    2784.562320
                         79       1    1fxy2            20.000000    2784.562320
                         79       1    1fxyz            20.000000    4823.003415
                         79       1    1fxz2            20.000000    2784.562320
                         79       1    1fy3             20.000000    1245.294127
                         79       1    1fy2z            20.000000    2784.562320
                         79       1    1fyz2            20.000000    2784.562320
                         79       1    1fz3             20.000000    1245.294127

                         80       1    1fx3             10.000000     261.790842
                         80       1    1fx2y            10.000000     585.382118
                         80       1    1fx2z            10.000000     585.382118
                         80       1    1fxy2            10.000000     585.382118
                         80       1    1fxyz            10.000000    1013.911571
                         80       1    1fxz2            10.000000     585.382118
                         80       1    1fy3             10.000000     261.790842
                         80       1    1fy2z            10.000000     585.382118
                         80       1    1fyz2            10.000000     585.382118
                         80       1    1fz3             10.000000     261.790842

                         81       1    1fx3              5.000000      55.034745
                         81       1    1fx2y             5.000000     123.061431
                         81       1    1fx2z             5.000000     123.061431
                         81       1    1fxy2             5.000000     123.061431
                         81       1    1fxyz             5.000000     213.148651
                         81       1    1fxz2             5.000000     123.061431
                         81       1    1fy3              5.000000      55.034745
                         81       1    1fy2z             5.000000     123.061431
                         81       1    1fyz2             5.000000     123.061431
                         81       1    1fz3              5.000000      55.034745

                         82       1    1fx3              2.000000       7.002803
                         82       1    1fx2y             2.000000      15.658745
                         82       1    1fx2z             2.000000      15.658745
                         82       1    1fxy2             2.000000      15.658745
                         82       1    1fxyz             2.000000      27.121741
                         82       1    1fxz2             2.000000      15.658745
                         82       1    1fy3              2.000000       7.002803
                         82       1    1fy2z             2.000000      15.658745
                         82       1    1fyz2             2.000000      15.658745
                         82       1    1fz3              2.000000       7.002803

                         83       1    1fx3              1.000000       1.472158
                         83       1    1fx2y             1.000000       3.291846
                         83       1    1fx2z             1.000000       3.291846
                         83       1    1fxy2             1.000000       3.291846
                         83       1    1fxyz             1.000000       5.701644
                         83       1    1fxz2             1.000000       3.291846
                         83       1    1fy3              1.000000       1.472158
                         83       1    1fy2z             1.000000       3.291846
                         83       1    1fyz2             1.000000       3.291846
                         83       1    1fz3              1.000000       1.472158

                         84       1    1fx3              0.500000       0.309483
                         84       1    1fx2y             0.500000       0.692025
                         84       1    1fx2z             0.500000       0.692025
                         84       1    1fxy2             0.500000       0.692025
                         84       1    1fxyz             0.500000       1.198623
                         84       1    1fxz2             0.500000       0.692025
                         84       1    1fy3              0.500000       0.309483
                         84       1    1fy2z             0.500000       0.692025
                         84       1    1fyz2             0.500000       0.692025
                         84       1    1fz3              0.500000       0.309483

                         85       1    1fx3              0.200000       0.039380
                         85       1    1fx2y             0.200000       0.088056
                         85       1    1fx2z             0.200000       0.088056
                         85       1    1fxy2             0.200000       0.088056
                         85       1    1fxyz             0.200000       0.152517
                         85       1    1fxz2             0.200000       0.088056
                         85       1    1fy3              0.200000       0.039380
                         85       1    1fy2z             0.200000       0.088056
                         85       1    1fyz2             0.200000       0.088056
                         85       1    1fz3              0.200000       0.039380

                         86       1    1fx3              0.100000       0.008279
                         86       1    1fx2y             0.100000       0.018511
                         86       1    1fx2z             0.100000       0.018511
                         86       1    1fxy2             0.100000       0.018511
                         86       1    1fxyz             0.100000       0.032063
                         86       1    1fxz2             0.100000       0.018511
                         86       1    1fy3              0.100000       0.008279
                         86       1    1fy2z             0.100000       0.018511
                         86       1    1fyz2             0.100000       0.018511
                         86       1    1fz3              0.100000       0.008279

                         87       1    1gx4          10000.000000***************
                         87       1    1gx3y         10000.000000***************
                         87       1    1gx3z         10000.000000***************
                         87       1    1gx2y2        10000.000000***************
                         87       1    1gx2yz        10000.000000***************
                         87       1    1gx2z2        10000.000000***************
                         87       1    1gxy3         10000.000000***************
                         87       1    1gxy2z        10000.000000***************
                         87       1    1gxyz2        10000.000000***************
                         87       1    1gxz3         10000.000000***************
                         87       1    1gy4          10000.000000***************
                         87       1    1gy3z         10000.000000***************
                         87       1    1gy2z2        10000.000000***************
                         87       1    1gyz3         10000.000000***************
                         87       1    1gz4          10000.000000***************

                         88       1    1gx4           5000.000000***************
                         88       1    1gx3y          5000.000000***************
                         88       1    1gx3z          5000.000000***************
                         88       1    1gx2y2         5000.000000***************
                         88       1    1gx2yz         5000.000000***************
                         88       1    1gx2z2         5000.000000***************
                         88       1    1gxy3          5000.000000***************
                         88       1    1gxy2z         5000.000000***************
                         88       1    1gxyz2         5000.000000***************
                         88       1    1gxz3          5000.000000***************
                         88       1    1gy4           5000.000000***************
                         88       1    1gy3z          5000.000000***************
                         88       1    1gy2z2         5000.000000***************
                         88       1    1gyz3          5000.000000***************
                         88       1    1gz4           5000.000000***************

                         89       1    1gx4           2000.000000***************
                         89       1    1gx3y          2000.000000***************
                         89       1    1gx3z          2000.000000***************
                         89       1    1gx2y2         2000.000000***************
                         89       1    1gx2yz         2000.000000***************
                         89       1    1gx2z2         2000.000000***************
                         89       1    1gxy3          2000.000000***************
                         89       1    1gxy2z         2000.000000***************
                         89       1    1gxyz2         2000.000000***************
                         89       1    1gxz3          2000.000000***************
                         89       1    1gy4           2000.000000***************
                         89       1    1gy3z          2000.000000***************
                         89       1    1gy2z2         2000.000000***************
                         89       1    1gyz3          2000.000000***************
                         89       1    1gz4           2000.000000***************

                         90       1    1gx4           1000.000000***************
                         90       1    1gx3y          1000.000000***************
                         90       1    1gx3z          1000.000000***************
                         90       1    1gx2y2         1000.000000***************
                         90       1    1gx2yz         1000.000000***************
                         90       1    1gx2z2         1000.000000***************
                         90       1    1gxy3          1000.000000***************
                         90       1    1gxy2z         1000.000000***************
                         90       1    1gxyz2         1000.000000***************
                         90       1    1gxz3          1000.000000***************
                         90       1    1gy4           1000.000000***************
                         90       1    1gy3z          1000.000000***************
                         90       1    1gy2z2         1000.000000***************
                         90       1    1gyz3          1000.000000***************
                         90       1    1gz4           1000.000000***************

                         91       1    1gx4            500.00000029417308.655515
                         91       1    1gx3y           500.00000077830882.943321
                         91       1    1gx3z           500.00000077830882.943321
                         91       1    1gx2y2          500.000000***************
                         91       1    1gx2yz          500.000000***************
                         91       1    1gx2z2          500.000000***************
                         91       1    1gxy3           500.00000077830882.943321
                         91       1    1gxy2z          500.000000***************
                         91       1    1gxyz2          500.000000***************
                         91       1    1gxz3           500.00000077830882.943321
                         91       1    1gy4            500.00000029417308.655515
                         91       1    1gy3z           500.00000077830882.943321
                         91       1    1gy2z2          500.000000***************
                         91       1    1gyz3           500.00000077830882.943321
                         91       1    1gz4            500.00000029417308.655515

                         92       1    1gx4            200.000000 2367379.668144
                         92       1    1gx3y           200.000000 6263497.860779
                         92       1    1gx3z           200.000000 6263497.860779
                         92       1    1gx2y2          200.000000 8086140.967934
                         92       1    1gx2yz          200.00000014005606.993626
                         92       1    1gx2z2          200.000000 8086140.967934
                         92       1    1gxy3           200.000000 6263497.860779
                         92       1    1gxy2z          200.00000014005606.993626
                         92       1    1gxyz2          200.00000014005606.993626
                         92       1    1gxz3           200.000000 6263497.860779
                         92       1    1gy4            200.000000 2367379.668144
                         92       1    1gy3z           200.000000 6263497.860779
                         92       1    1gy2z2          200.000000 8086140.967934
                         92       1    1gyz3           200.000000 6263497.860779
                         92       1    1gz4            200.000000 2367379.668144

                         93       1    1gx4            100.000000  351913.093159
                         93       1    1gx3y           100.000000  931074.527605
                         93       1    1gx3z           100.000000  931074.527605
                         93       1    1gx2y2          100.000000 1202012.046498
                         93       1    1gx2yz          100.000000 2081945.935844
                         93       1    1gx2z2          100.000000 1202012.046498
                         93       1    1gxy3           100.000000  931074.527605
                         93       1    1gxy2z          100.000000 2081945.935844
                         93       1    1gxyz2          100.000000 2081945.935844
                         93       1    1gxz3           100.000000  931074.527605
                         93       1    1gy4            100.000000  351913.093159
                         93       1    1gy3z           100.000000  931074.527605
                         93       1    1gy2z2          100.000000 1202012.046498
                         93       1    1gyz3           100.000000  931074.527605
                         93       1    1gz4            100.000000  351913.093159

                         94       1    1gx4             50.000000   52312.194281
                         94       1    1gx3y            50.000000  138405.056603
                         94       1    1gx3z            50.000000  138405.056603
                         94       1    1gx2y2           50.000000  178680.159752
                         94       1    1gx2yz           50.000000  309483.114995
                         94       1    1gx2z2           50.000000  178680.159752
                         94       1    1gxy3            50.000000  138405.056603
                         94       1    1gxy2z           50.000000  309483.114995
                         94       1    1gxyz2           50.000000  309483.114995
                         94       1    1gxz3            50.000000  138405.056603
                         94       1    1gy4             50.000000   52312.194281
                         94       1    1gy3z            50.000000  138405.056603
                         94       1    1gy2z2           50.000000  178680.159752
                         94       1    1gyz3            50.000000  138405.056603
                         94       1    1gz4             50.000000   52312.194281

                         95       1    1gx4             20.000000    4209.862520
                         95       1    1gx3y            20.000000   11138.249281
                         95       1    1gx3z            20.000000   11138.249281
                         95       1    1gx2y2           20.000000   14379.417990
                         95       1    1gx2yz           20.000000   24905.882542
                         95       1    1gx2z2           20.000000   14379.417990
                         95       1    1gxy3            20.000000   11138.249281
                         95       1    1gxy2z           20.000000   24905.882542
                         95       1    1gxyz2           20.000000   24905.882542
                         95       1    1gxz3            20.000000   11138.249281
                         95       1    1gy4             20.000000    4209.862520
                         95       1    1gy3z            20.000000   11138.249281
                         95       1    1gy2z2           20.000000   14379.417990
                         95       1    1gyz3            20.000000   11138.249281
                         95       1    1gz4             20.000000    4209.862520

                         96       1    1gx4             10.000000     625.799808
                         96       1    1gx3y            10.000000    1655.710662
                         96       1    1gx3z            10.000000    1655.710662
                         96       1    1gx2y2           10.000000    2137.513273
                         96       1    1gx2yz           10.000000    3702.281591
                         96       1    1gx2z2           10.000000    2137.513273
                         96       1    1gxy3            10.000000    1655.710662
                         96       1    1gxy2z           10.000000    3702.281591
                         96       1    1gxyz2           10.000000    3702.281591
                         96       1    1gxz3            10.000000    1655.710662
                         96       1    1gy4             10.000000     625.799808
                         96       1    1gy3z            10.000000    1655.710662
                         96       1    1gy2z2           10.000000    2137.513273
                         96       1    1gyz3            10.000000    1655.710662
                         96       1    1gz4             10.000000     625.799808

                         97       1    1gx4              5.000000      93.025698
                         97       1    1gx3y             5.000000     246.122862
                         97       1    1gx3z             5.000000     246.122862
                         97       1    1gx2y2            5.000000     317.743249
                         97       1    1gx2yz            5.000000     550.347451
                         97       1    1gx2z2            5.000000     317.743249
                         97       1    1gxy3             5.000000     246.122862
                         97       1    1gxy2z            5.000000     550.347451
                         97       1    1gxyz2            5.000000     550.347451
                         97       1    1gxz3             5.000000     246.122862
                         97       1    1gy4              5.000000      93.025698
                         97       1    1gy3z             5.000000     246.122862
                         97       1    1gy2z2            5.000000     317.743249
                         97       1    1gyz3             5.000000     246.122862
                         97       1    1gz4              5.000000      93.025698

                         98       1    1gx4              2.000000       7.486312
                         98       1    1gx3y             2.000000      19.806919
                         98       1    1gx3z             2.000000      19.806919
                         98       1    1gx2y2            2.000000      25.570623
                         98       1    1gx2yz            2.000000      44.289618
                         98       1    1gx2z2            2.000000      25.570623
                         98       1    1gxy3             2.000000      19.806919
                         98       1    1gxy2z            2.000000      44.289618
                         98       1    1gxyz2            2.000000      44.289618
                         98       1    1gxz3             2.000000      19.806919
                         98       1    1gy4              2.000000       7.486312
                         98       1    1gy3z             2.000000      19.806919
                         98       1    1gy2z2            2.000000      25.570623
                         98       1    1gyz3             2.000000      19.806919
                         98       1    1gz4              2.000000       7.486312

                         99       1    1gx4              1.000000       1.112847
                         99       1    1gx3y             1.000000       2.944316
                         99       1    1gx3z             1.000000       2.944316
                         99       1    1gx2y2            1.000000       3.801096
                         99       1    1gx2yz            1.000000       6.583691
                         99       1    1gx2z2            1.000000       3.801096
                         99       1    1gxy3             1.000000       2.944316
                         99       1    1gxy2z            1.000000       6.583691
                         99       1    1gxyz2            1.000000       6.583691
                         99       1    1gxz3             1.000000       2.944316
                         99       1    1gy4              1.000000       1.112847
                         99       1    1gy3z             1.000000       2.944316
                         99       1    1gy2z2            1.000000       3.801096
                         99       1    1gyz3             1.000000       2.944316
                         99       1    1gz4              1.000000       1.112847

                        100       1    1gx4              0.500000       0.165426
                        100       1    1gx3y             0.500000       0.437675
                        100       1    1gx3z             0.500000       0.437675
                        100       1    1gx2y2            0.500000       0.565036
                        100       1    1gx2yz            0.500000       0.978672
                        100       1    1gx2z2            0.500000       0.565036
                        100       1    1gxy3             0.500000       0.437675
                        100       1    1gxy2z            0.500000       0.978672
                        100       1    1gxyz2            0.500000       0.978672
                        100       1    1gxz3             0.500000       0.437675
                        100       1    1gy4              0.500000       0.165426
                        100       1    1gy3z             0.500000       0.437675
                        100       1    1gy2z2            0.500000       0.565036
                        100       1    1gyz3             0.500000       0.437675
                        100       1    1gz4              0.500000       0.165426

                        101       1    1gx4              0.200000       0.013313
                        101       1    1gx3y             0.200000       0.035222
                        101       1    1gx3z             0.200000       0.035222
                        101       1    1gx2y2            0.200000       0.045472
                        101       1    1gx2yz            0.200000       0.078759
[...]
 *** continues using ATOMIC GUESS.                                        ***


 Atomic guess: The first density matrix is obtained in terms of atomic orbitals
               and electronic configurations assigned to each atomic kind

 Guess for atomic kind: Rb

 Electronic structure
    Total number of core electrons                                          0.00
    Total number of valence electrons                                      37.00
    Total number of electrons                                              37.00
    Multiplicity                                                   not specified
    S      2.00  2.00  2.00  2.00  1.00
    P      6.00  6.00  6.00
    D     10.00


 *******************************************************************************
                  Iteration          Convergence                     Energy [au]
 *******************************************************************************
                          1         23.0771                   -2922.079442908571
                          2         11.6185                   -2928.526606376399
                          3        0.466582                   -2936.178451796881
                          4        0.313649                   -2936.230089630613
                          5        0.731114E-02               -2936.261014454117
                          6        0.535164E-03               -2936.261034677870
                          7        0.549781E-04               -2936.261034783320
                          8        0.848048E-06               -2936.261034784835

 Energy components [Hartree]           Total Energy ::        -2936.261034784835
                                        Band Energy ::        -1728.798041573985
                                     Kinetic Energy ::         2931.214792571734
                                   Potential Energy ::        -5867.475827356569
                                      Virial (-V/T) ::            2.001721553202
                                        Core Energy ::        -4079.112241071773
                                          XC Energy ::          -95.700130398369
                                     Coulomb Energy ::         1238.551336685307

 Orbital energies  State     L     Occupation   Energy[a.u.]          Energy[eV]

                       1     0          2.000    -541.014117       -14721.742799
                       2     0          2.000     -71.328177        -1940.938410
                       3     0          2.000     -10.517420         -286.193557
                       4     0          2.000      -1.134821          -30.880050
                       5     0          1.000      -0.085360           -2.322762

                       1     1          6.000     -64.825715        -1763.997427
                       2     1          6.000      -8.169147         -222.293786
                       3     1          6.000      -0.591645          -16.099468

                       1     2         10.000      -3.920457         -106.681064


 Total Electron Density at R=0:                                     34875.087966
 Re-scaling the density matrix to get the right number of electrons
                  # Electrons              Trace(P)               Scaling factor
                           74                74.000                        1.000


 SCF WAVEFUNCTION OPTIMIZATION

  Step     Update method      Time    Convergence         Total energy    Change
  ------------------------------------------------------------------------------
     1 P_Mix/Diag. 0.40E+00    4.2     0.46350506     -5879.4498871212 -5.88E+03
     2 P_Mix/Diag. 0.40E+00    4.6     0.25468421     -5879.4486473338  1.24E-03
     3 P_Mix/Diag. 0.40E+00    4.9     0.13888145     -5879.4478177461  8.30E-04
     4 P_Mix/Diag. 0.40E+00    4.8     0.07461065     -5879.4473209479  4.97E-04
     5 DIIS/Diag.  0.22E-02    4.6     0.03161094     -5879.4470283308  2.93E-04
     6 DIIS/Diag.  0.29E-03    4.8     0.00304452     -5879.4466059424  4.22E-04
     7 DIIS/Diag.  0.31E-03    4.8     0.00084520     -5879.4466060280 -8.56E-08
     8 DIIS/Diag.  0.16E-04    4.7     0.00008428     -5879.4466060796 -5.17E-08
     9 DIIS/Diag.  0.14E-04    4.3     0.00004162     -5879.4466060801 -4.79E-10
    10 DIIS/Diag.  0.12E-05    4.4     0.00000166     -5879.4466060803 -2.06E-10
    11 DIIS/Diag.  0.71E-06    4.8     0.00000242     -5879.4466060803  2.00E-11
    12 DIIS/Diag.  0.11E-06    4.7     0.00000105     -5879.4466060803 -2.36E-11
    13 DIIS/Diag.  0.15E-07    4.5     0.00000008     -5879.4466060803 -9.09E-13

  *** SCF run converged in    13 steps ***


  Electronic density on regular grids:        -24.6503710847       49.3496289153
  Core density on regular grids:               74.0000000000        0.0000000000
  Hard and soft densities (Lebedev):          -74.0345314322      -24.6848810636
  Total Rho_soft + Rho1_hard - Rho1_soft      -74.0000214533
  Total charge density (r-space):              -0.0000214533
  Total Rho_soft + Rho0_soft (g-space):        -0.0000002553

  Overlap energy of the core charge distribution:               0.00000000000000
  Self energy of the core charge distribution:              -1544.75107975375704
  Core Hamiltonian energy:                                  -4803.64345200231401
  Hartree energy:                                             141.19883019562499
  Exchange-correlation energy:                                -12.96861334771825

  GAPW| Exc from hard and soft atomic rho1:                  -185.38164857480609
  GAPW| local Eh = 1 center integrals:                        526.09935740263518

  Total energy:                                             -5879.44660608033428

 !-----------------------------------------------------------------------------!
                     Mulliken Population Analysis

 #  Atom  Element  Kind  Atomic population                           Net charge
       1     Rb       1         37.000000                              0.000000
       2     Rb       1         37.000000                             -0.000000
 # Total charge                             74.000000                 -0.000000

 !-----------------------------------------------------------------------------!

 !-----------------------------------------------------------------------------!
                           Hirshfeld Charges

  #Atom  Element  Kind  Ref Charge     Population                    Net charge
      1       Rb     1      37.000         37.000                         0.000
      2       Rb     1      37.000         37.000                         0.000

  Total Charge                                                            0.001
 !-----------------------------------------------------------------------------!


 RI-RPA section
 --------------

  Used number of processes per group:                                          1
  Maximum allowed memory usage per MPI processes:                     200.00 MiB

  HFX_MEM_INFO| Est. max. program size before HFX [MiB]:                     647
 POWELL| Error in trust region
 POWELL| Error in trust region
 POWELL| Error in trust region
 POWELL| Error in trust region
 POWELL| Error in trust region
 POWELL| Error in trust region
 POWELL| Error in trust region
 POWELL| Error in trust region
 POWELL| Error in trust region
 POWELL| Error in trust region
 POWELL| Error in trust region
 POWELL| Error in trust region
 POWELL| Error in trust region
 POWELL| Error in trust region
 POWELL| Error in trust region
 POWELL| Error in trust region
 POWELL| Error in trust region
 POWELL| Error in trust region
 POWELL| Error in trust region
 POWELL| Error in trust region
 POWELL| Error in trust region
 POWELL| Error in trust region
 POWELL| Error in trust region
 POWELL| Error in trust region
 POWELL| Error in trust region
 POWELL| Error in trust region
 POWELL| Error in trust region
 POWELL| Error in trust region
 POWELL| Error in trust region
 POWELL| Error in trust region
 POWELL| Error in trust region
 POWELL| Error in trust region
 POWELL| Error in trust region
 POWELL| Error in trust region
 POWELL| Error in trust region
 POWELL| Error in trust region
 POWELL| Error in trust region
 POWELL| Error in trust region
 POWELL| Error in trust region
 POWELL| Error in trust region
 POWELL| Error in trust region
 POWELL| Error in trust region
 POWELL| Error in trust region
 POWELL| Error in trust region
 POWELL| Error in trust region
 POWELL| Error in trust region
 POWELL| Error in trust region
 POWELL| Error in trust region
 POWELL| Error in trust region
 POWELL| Error in trust region
 POWELL| Error in trust region
 POWELL| Error in trust region
 POWELL| Error in trust region
 POWELL| Error in trust region
 POWELL| Error in trust region
 POWELL| Error in trust region
 POWELL| Error in trust region
 POWELL| Error in trust region
 POWELL| Error in trust region
 POWELL| Error in trust region
 POWELL| Error in trust region
 POWELL| Error in trust region
 POWELL| Error in trust region
 POWELL| Error in trust region
 POWELL| Error in trust region
 POWELL| Error in trust region
 POWELL| Error in trust region
 POWELL| Error in trust region
 POWELL| Error in trust region
 POWELL| Error in trust region
 POWELL| Error in trust region
 POWELL| Error in trust region
 POWELL| Error in trust region
 POWELL| Error in trust region
 POWELL| Error in trust region
 POWELL| Error in trust region
 POWELL| Error in trust region
 POWELL| Error in trust region
 POWELL| Error in trust region
 POWELL| Error in trust region
 POWELL| Error in trust region
 POWELL| Error in trust region
 POWELL| Error in trust region
 POWELL| Error in trust region
 POWELL| Error in trust region
 POWELL| Error in trust region
 POWELL| Error in trust region
 POWELL| Error in trust region
 POWELL| Error in trust region
 POWELL| Error in trust region
 POWELL| Error in trust region
 POWELL| Error in trust region
 POWELL| Error in trust region
 POWELL| Error in trust region
 POWELL| Error in trust region
 POWELL| Error in trust region
 POWELL| Error in trust region
 POWELL| Error in trust region
 POWELL| Error in trust region
 POWELL| Error in trust region
 POWELL| Error in trust region
 POWELL| Error in trust region
 POWELL| Error in trust region
 POWELL| Error in trust region
 POWELL| Error in trust region
 POWELL| Error in trust region
 POWELL| Error in trust region
 POWELL| Error in trust region
 POWELL| Error in trust region
 POWELL| Error in trust region
 POWELL| Error in trust region
 POWELL| Error in trust region
 POWELL| Error in trust region
 POWELL| Error in trust region
 POWELL| Error in trust region
 POWELL| Error in trust region
 POWELL| Error in trust region
 POWELL| Error in trust region
 POWELL| Error in trust region
 POWELL| Error in trust region
 POWELL| Error in trust region
 POWELL| Error in trust region
 POWELL| Error in trust region
 POWELL| Error in trust region
 POWELL| Error in trust region
 POWELL| Error in trust region
 POWELL| Error in trust region
 POWELL| Error in trust region
 POWELL| Error in trust region
 POWELL| Error in trust region
 POWELL| Error in trust region
 POWELL| Error in trust region
 POWELL| Error in trust region
 POWELL| Error in trust region
 POWELL| Error in trust region
 POWELL| Error in trust region
 POWELL| Error in trust region
 POWELL| Error in trust region
 POWELL| Error in trust region
 POWELL| Error in trust region
 POWELL| Error in trust region
 POWELL| Error in trust region
 POWELL| Error in trust region
 POWELL| Error in trust region
 POWELL| Error in trust region
 POWELL| Error in trust region
 POWELL| Error in trust region
 POWELL| Error in trust region
 POWELL| Error in trust region
 POWELL| Error in trust region
 POWELL| Error in trust region
 POWELL| Error in trust region
 POWELL| Error in trust region
 POWELL| Error in trust region
 POWELL| Error in trust region
 POWELL| Error in trust region
 POWELL| Error in trust region
 POWELL| Error in trust region
 POWELL| Error in trust region
 POWELL| Error in trust region
 POWELL| Error in trust region
 POWELL| Error in trust region
 POWELL| Error in trust region
 POWELL| Error in trust region
 POWELL| Error in trust region
 POWELL| Error in trust region
 POWELL| Error in trust region
 POWELL| Error in trust region
 POWELL| Error in trust region
 POWELL| Error in trust region
 POWELL| Error in trust region
 POWELL| Error in trust region
 POWELL| Error in trust region
 POWELL| Error in trust region
 POWELL| Error in trust region
 POWELL| Error in trust region
 POWELL| Error in trust region
 POWELL| Error in trust region
 POWELL| Error in trust region
 POWELL| Error in trust region
 POWELL| Error in trust region
 POWELL| Error in trust region
 POWELL| Error in trust region
 POWELL| Error in trust region
 POWELL| Error in trust region
 POWELL| Error in trust region
 POWELL| Error in trust region
 POWELL| Error in trust region
 POWELL| Error in trust region
 POWELL| Error in trust region
 POWELL| Error in trust region
 POWELL| Error in trust region
 POWELL| Error in trust region
 POWELL| Error in trust region
 POWELL| Error in trust region
 POWELL| Error in trust region
 POWELL| Error in trust region
 POWELL| Error in trust region
 POWELL| Error in trust region
 POWELL| Error in trust region
 POWELL| Error in trust region
 POWELL| Error in trust region
 POWELL| Error in trust region
 POWELL| Error in trust region
 POWELL| Error in trust region
 POWELL| Error in trust region
 POWELL| Error in trust region
 POWELL| Error in trust region
 POWELL| Error in trust region
 POWELL| Error in trust region
 POWELL| Error in trust region
 POWELL| Error in trust region
 POWELL| Error in trust region
 POWELL| Error in trust region
 POWELL| Error in trust region
 POWELL| Error in trust region
 POWELL| Error in trust region
 POWELL| Error in trust region
 POWELL| Error in trust region
 POWELL| Error in trust region
 POWELL| Error in trust region
 POWELL| Error in trust region
 POWELL| Error in trust region
 POWELL| Error in trust region
 POWELL| Error in trust region
 POWELL| Error in trust region
 POWELL| Error in trust region
 POWELL| Error in trust region
 POWELL| Error in trust region
 POWELL| Error in trust region
 POWELL| Error in trust region
 POWELL| Error in trust region
 POWELL| Error in trust region
 POWELL| Error in trust region
 POWELL| Error in trust region
 POWELL| Error in trust region
 POWELL| Error in trust region
 POWELL| Error in trust region
 POWELL| Error in trust region
 POWELL| Error in trust region
 POWELL| Error in trust region
 POWELL| Error in trust region
 POWELL| Error in trust region
 POWELL| Error in trust region
 POWELL| Error in trust region
 POWELL| Error in trust region
 POWELL| Error in trust region
 POWELL| Error in trust region
 POWELL| Error in trust region
 POWELL| Error in trust region
 POWELL| Error in trust region
 POWELL| Error in trust region
 POWELL| Error in trust region
 POWELL| Error in trust region
 POWELL| Error in trust region
 POWELL| Error in trust region
 POWELL| Error in trust region
 POWELL| Error in trust region
 POWELL| Error in trust region
 POWELL| Error in trust region
 POWELL| Error in trust region
 POWELL| Error in trust region
 POWELL| Error in trust region
 POWELL| Error in trust region
 POWELL| Error in trust region
 POWELL| Error in trust region
 POWELL| Error in trust region
 POWELL| Error in trust region
 POWELL| Error in trust region
 POWELL| Error in trust region
 POWELL| Error in trust region
 POWELL| Error in trust region
 POWELL| Error in trust region
 POWELL| Error in trust region
 POWELL| Error in trust region
 POWELL| Error in trust region
 POWELL| Error in trust region
 POWELL| Error in trust region
 POWELL| Error in trust region
 POWELL| Error in trust region
 POWELL| Error in trust region
 POWELL| Error in trust region
 POWELL| Error in trust region
 POWELL| Error in trust region
 POWELL| Error in trust region
 POWELL| Error in trust region
 POWELL| Error in trust region
 POWELL| Error in trust region
 POWELL| Error in trust region
 POWELL| Error in trust region
 POWELL| Error in trust region
 POWELL| Error in trust region
 POWELL| Error in trust region
 POWELL| Error in trust region
 POWELL| Error in trust region
 POWELL| Error in trust region
 POWELL| Error in trust region
 POWELL| Error in trust region
 POWELL| Error in trust region
 POWELL| Error in trust region
 POWELL| Error in trust region
 POWELL| Error in trust region
 POWELL| Error in trust region
 POWELL| Error in trust region
 POWELL| Error in trust region
 POWELL| Error in trust region
 POWELL| Error in trust region
 POWELL| Error in trust region
 POWELL| Error in trust region
 POWELL| Error in trust region
 POWELL| Error in trust region
 POWELL| Error in trust region
 POWELL| Error in trust region
 POWELL| Error in trust region
 POWELL| Error in trust region
 POWELL| Error in trust region
 POWELL| Error in trust region
 POWELL| Error in trust region
 POWELL| Error in trust region
 POWELL| Error in trust region
 POWELL| Error in trust region
 POWELL| Error in trust region
 POWELL| Error in trust region
 POWELL| Error in trust region
 POWELL| Error in trust region
 POWELL| Error in trust region
 POWELL| Error in trust region
 POWELL| Error in trust region
 POWELL| Error in trust region
 POWELL| Error in trust region
 POWELL| Error in trust region
 POWELL| Error in trust region
 POWELL| Error in trust region
 POWELL| Error in trust region
 POWELL| Error in trust region
 POWELL| Error in trust region
 POWELL| Error in trust region
 POWELL| Error in trust region
 POWELL| Error in trust region
 POWELL| Error in trust region
 POWELL| Error in trust region
 POWELL| Error in trust region
 POWELL| Error in trust region
 POWELL| Error in trust region
 POWELL| Error in trust region
 POWELL| Error in trust region
 POWELL| Error in trust region
 POWELL| Error in trust region
 POWELL| Error in trust region
 POWELL| Error in trust region
 POWELL| Error in trust region
 POWELL| Error in trust region
 POWELL| Error in trust region
 POWELL| Error in trust region
 POWELL| Error in trust region
 POWELL| Error in trust region
 POWELL| Error in trust region
 POWELL| Error in trust region
 POWELL| Error in trust region
 POWELL| Error in trust region
  HFX_MEM_INFO| Number of cart. primitive ERI's calculated:           6379087850
  HFX_MEM_INFO| Number of sph. ERI's calculated:                       367314246
  HFX_MEM_INFO| Number of sph. ERI's stored in-core:                   367314246
  HFX_MEM_INFO| Number of sph. ERI's stored on disk:                           0
  HFX_MEM_INFO| Number of sph. ERI's calculated on the fly:                    0
  HFX_MEM_INFO| Total memory consumption ERI's RAM [MiB]:                   1931
  HFX_MEM_INFO| Whereof max-vals [MiB]:                                        4
  HFX_MEM_INFO| Total compression factor ERI's RAM:                         1.45
  HFX_MEM_INFO| Total memory consumption ERI's disk [MiB]:                     0
  HFX_MEM_INFO| Total compression factor ERI's disk:                        0.00
  HFX_MEM_INFO| Size of density/Fock matrix [MiB]:                             0
  HFX_MEM_INFO| Size of buffers [MiB]:                                         1
  HFX_MEM_INFO| Est. max. program size after HFX  [MiB]:                     940

  GPW_INFO| Density cutoff [a.u.]:                                         150.0
  GPW_INFO| Relative density cutoff [a.u.]:                                 25.0
  RI_INFO| Cholesky decomposition group size:                                 24
  RI_INFO| Number of groups for auxiliary basis functions                     24
  RI_INFO| Occupied  basis set size:                                          37
  RI_INFO| Virtual   basis set size:                                         143
  RI_INFO| Auxiliary basis set size:                                        1432
  RI_INFO| Total memory for (ia|K) integrals:                          57.81 MiB
