 DBCSR| CPU Multiplication driver                                           BLAS
 DBCSR| Multrec recursion limit                                              512
 DBCSR| Multiplication stack size                                           1000
 DBCSR| Maximum elements for images                                    UNLIMITED
 DBCSR| Multiplicative factor virtual images                                   1
 DBCSR| Use multiplication densification                                       T
 DBCSR| Multiplication size stacks                                             3
 DBCSR| Number of 3D layers                                               SINGLE
 DBCSR| Use MPI memory allocation                                              T
 DBCSR| Use RMA algorithm                                                      F
 DBCSR| Use Communication thread                                               T
 DBCSR| Communication thread load                                             87


  **** **** ******  **  PROGRAM STARTED AT               2019-05-31 17:05:35.460
 ***** ** ***  *** **   PROGRAM STARTED ON                                tcopt4
 **    ****   ******    PROGRAM STARTED BY                               wilhelm
 ***** **    ** ** **   PROGRAM PROCESS ID                                 81333
  **** **  *******  **  PROGRAM STARTED IN /data/wilhelm/2_job_test/11_GW100/3_c
                                           alcs/49_PH3

 CP2K| version string:                    CP2K version 7.0 (Development Version)
 CP2K| source code revision number:                                  git:026fb12
 CP2K| cp2kflags: libint fftw3 libxc pexsi elpa=201705 parallel mpi3 scalapack q
 CP2K|            uip libderiv_max_am1=5 libint_max_am=6
 CP2K| is freely available from                            https://www.cp2k.org/
 CP2K| Program compiled at                         Sat May 11 13:15:02 CEST 2019
 CP2K| Program compiled on                                                tcopt4
 CP2K| Program compiled for                            local_valgrind_March_2019
 CP2K| Data directory path              /data/wilhelm/1_git_repository/cp2k/data
 CP2K| Input file name                                                    GW.inp

 GLOBAL| Force Environment number                                              1
 GLOBAL| Basis set file name                              BASIS_def2_QZVP_RI_ALL
 GLOBAL| Potential file name                                           POTENTIAL
 GLOBAL| MM Potential file name                                     MM_POTENTIAL
 GLOBAL| Coordinate file name                                         49_PH3.xyz
 GLOBAL| Method name                                                        CP2K
 GLOBAL| Project name                                                   ALL_ELEC
 GLOBAL| Preferred FFT library                                             FFTW3
 GLOBAL| Preferred diagonalization lib.                                       SL
 GLOBAL| Run type                                                         ENERGY
 GLOBAL| All-to-all communication in single precision                          F
 GLOBAL| FFTs using library dependent lengths                                  F
 GLOBAL| Global print level                                               MEDIUM
 GLOBAL| MPI I/O enabled                                                       T
 GLOBAL| Total number of message passing processes                            40
 GLOBAL| Number of threads for this process                                    1
 GLOBAL| This output is from process                                           0
 GLOBAL| CPU model name :  Intel(R) Xeon(R) CPU E5-2697 v3 @ 2.60GHz

 MEMORY| system memory details [Kb]
 MEMORY|                        rank 0           min           max       average
 MEMORY| MemTotal            396954008     396954008     396954008     396954008
 MEMORY| MemFree             376735808     376735808     376735808     376735808
 MEMORY| Buffers                335604        335604        335604        335604
 MEMORY| Cached               15982800      15982800      15982800      15982800
 MEMORY| Slab                   603688        603688        603688        603688
 MEMORY| SReclaimable           464060        464060        464060        464060
 MEMORY| MemLikelyFree       393518272     393518272     393518272     393518272


 *** Fundamental physical constants (SI units) ***

 *** Literature: B. J. Mohr and B. N. Taylor,
 ***             CODATA recommended values of the fundamental physical
 ***             constants: 2006, Web Version 5.1
 ***             http://physics.nist.gov/constants

 Speed of light in vacuum [m/s]                             2.99792458000000E+08
 Magnetic constant or permeability of vacuum [N/A**2]       1.25663706143592E-06
 Electric constant or permittivity of vacuum [F/m]          8.85418781762039E-12
 Planck constant (h) [J*s]                                  6.62606896000000E-34
 Planck constant (h-bar) [J*s]                              1.05457162825177E-34
 Elementary charge [C]                                      1.60217648700000E-19
 Electron mass [kg]                                         9.10938215000000E-31
 Electron g factor [ ]                                     -2.00231930436220E+00
 Proton mass [kg]                                           1.67262163700000E-27
 Fine-structure constant                                    7.29735253760000E-03
 Rydberg constant [1/m]                                     1.09737315685270E+07
 Avogadro constant [1/mol]                                  6.02214179000000E+23
 Boltzmann constant [J/K]                                   1.38065040000000E-23
 Atomic mass unit [kg]                                      1.66053878200000E-27
 Bohr radius [m]                                            5.29177208590000E-11

 *** Conversion factors ***

 [u] -> [a.u.]                                              1.82288848426455E+03
 [Angstrom] -> [Bohr] = [a.u.]                              1.88972613288564E+00
 [a.u.] = [Bohr] -> [Angstrom]                              5.29177208590000E-01
 [a.u.] -> [s]                                              2.41888432650478E-17
 [a.u.] -> [fs]                                             2.41888432650478E-02
 [a.u.] -> [J]                                              4.35974393937059E-18
 [a.u.] -> [N]                                              8.23872205491840E-08
 [a.u.] -> [K]                                              3.15774647902944E+05
 [a.u.] -> [kJ/mol]                                         2.62549961709828E+03
 [a.u.] -> [kcal/mol]                                       6.27509468713739E+02
 [a.u.] -> [Pa]                                             2.94210107994716E+13
 [a.u.] -> [bar]                                            2.94210107994716E+08
 [a.u.] -> [atm]                                            2.90362800883016E+08
 [a.u.] -> [eV]                                             2.72113838565563E+01
 [a.u.] -> [Hz]                                             6.57968392072181E+15
 [a.u.] -> [1/cm] (wave numbers)                            2.19474631370540E+05
 [a.u./Bohr**2] -> [1/cm]                                   5.14048714338585E+03
 

 CELL_TOP| Volume [angstrom^3]:                                         4096.000
 CELL_TOP| Vector a [angstrom    16.000     0.000     0.000    |a| =      16.000
 CELL_TOP| Vector b [angstrom     0.000    16.000     0.000    |b| =      16.000
 CELL_TOP| Vector c [angstrom     0.000     0.000    16.000    |c| =      16.000
 CELL_TOP| Angle (b,c), alpha [degree]:                                   90.000
 CELL_TOP| Angle (a,c), beta  [degree]:                                   90.000
 CELL_TOP| Angle (a,b), gamma [degree]:                                   90.000
 CELL_TOP| Numerically orthorhombic:                                         YES

 GENERATE|  Preliminary Number of Bonds generated:                             0
 GENERATE|  Achieved consistency in connectivity generation.

 CELL| Volume [angstrom^3]:                                             4096.000
 CELL| Vector a [angstrom]:      16.000     0.000     0.000    |a| =      16.000
 CELL| Vector b [angstrom]:       0.000    16.000     0.000    |b| =      16.000
 CELL| Vector c [angstrom]:       0.000     0.000    16.000    |c| =      16.000
 CELL| Angle (b,c), alpha [degree]:                                       90.000
 CELL| Angle (a,c), beta  [degree]:                                       90.000
 CELL| Angle (a,b), gamma [degree]:                                       90.000
 CELL| Numerically orthorhombic:                                             YES

 CELL_REF| Volume [angstrom^3]:                                         4096.000
 CELL_REF| Vector a [angstrom    16.000     0.000     0.000    |a| =      16.000
 CELL_REF| Vector b [angstrom     0.000    16.000     0.000    |b| =      16.000
 CELL_REF| Vector c [angstrom     0.000     0.000    16.000    |c| =      16.000
 CELL_REF| Angle (b,c), alpha [degree]:                                   90.000
 CELL_REF| Angle (a,c), beta  [degree]:                                   90.000
 CELL_REF| Angle (a,b), gamma [degree]:                                   90.000
 CELL_REF| Numerically orthorhombic:                                         YES

 *******************************************************************************
 *******************************************************************************
 **                                                                           **
 **     #####                         ##              ##                      **
 **    ##   ##            ##          ##              ##                      **
 **   ##     ##                       ##            ######                    **
 **   ##     ##  ##   ##  ##   #####  ##  ##   ####   ##    #####    #####    **
 **   ##     ##  ##   ##  ##  ##      ## ##   ##      ##   ##   ##  ##   ##   **
 **   ##  ## ##  ##   ##  ##  ##      ####     ###    ##   ######   ######    **
 **    ##  ###   ##   ##  ##  ##      ## ##      ##   ##   ##       ##        **
 **     #######   #####   ##   #####  ##  ##  ####    ##    #####   ##        **
 **           ##                                                    ##        **
 **                                                                           **
 **                                                ... make the atoms dance   **
 **                                                                           **
 **            Copyright (C) by CP2K developers group (2000 - 2019)           **
 **                                                                           **
 *******************************************************************************

 DFT| Spin restricted Kohn-Sham (RKS) calculation                            RKS
 DFT| Multiplicity                                                             1
 DFT| Number of spin states                                                    1
 DFT| Charge                                                                   0
 DFT| Self-interaction correction (SIC)                                       NO
 DFT| Cutoffs: density                                              1.000000E-10
 DFT|          gradient                                             1.000000E-10
 DFT|          tau                                                  1.000000E-10
 DFT|          cutoff_smoothing_range                               0.000000E+00
 DFT| XC density smoothing                                                  NONE
 DFT| XC derivatives                                                          PW
 FUNCTIONAL| ROUTINE=NEW
 FUNCTIONAL| PBE:
 FUNCTIONAL| J.P.Perdew, K.Burke, M.Ernzerhof, Phys. Rev. Letter, vol. 77, n 18,
 FUNCTIONAL|  pp. 3865-3868, (1996){spin unpolarized}                           

 QS| Method:                                                                GAPW
 QS| Density plane wave grid type                        NON-SPHERICAL FULLSPACE
 QS| Number of grid levels:                                                    4
 QS| Density cutoff [a.u.]:                                                200.0
 QS| Multi grid cutoff [a.u.]: 1) grid level                               200.0
 QS|                           2) grid level                                66.7
 QS|                           3) grid level                                22.2
 QS|                           4) grid level                                 7.4
 QS| Grid level progression factor:                                          3.0
 QS| Relative density cutoff [a.u.]:                                        25.0
 QS| Consistent realspace mapping and integration 
 QS| Interaction thresholds: eps_pgf_orb:                                1.0E-05
 QS|                         eps_filter_matrix:                          0.0E+00
 QS|                         eps_core_charge:                            1.0E-12
 QS|                         eps_rho_gspace:                             1.0E-10
 QS|                         eps_rho_rspace:                             1.0E-10
 QS|                         eps_gvg_rspace:                             1.0E-05
 QS|                         eps_ppl:                                    1.0E-02
 QS|                         eps_ppnl:                                   1.0E-07
 QS| GAPW|                   eps_fit:                                    1.0E-04
 QS| GAPW|                   eps_iso:                                    1.0E-12
 QS| GAPW|                   eps_svd:                                    1.0E-08
 QS| GAPW|                   eps_cpc:                                    1.0E-10
 QS| GAPW|   atom-r-grid: quadrature:                 GC_LOG                        
 QS| GAPW|      atom-s-grid:  max l :                                          8
 QS| GAPW|      max_l_rho0 :                                                   2


 ATOMIC KIND INFORMATION

  1. Atomic kind: P                                     Number of atoms:       1

     Orbital Basis Set                                                 def2-QZVP

       Number of orbital shell sets:                                          22
       Number of orbital shells:                                              22
       Number of primitive Cartesian functions:                               41
       Number of Cartesian basis functions:                                   86
       Number of spherical basis functions:                                   70
       Norm type:                                                              2

       Normalised Cartesian orbitals:

                        Set   Shell   Orbital            Exponent    Coefficient

                          1       1    1s          1090561.713800       0.354233
                                                    163316.394610       0.662930
                                                     37166.607451       1.148249
                                                     10526.880945       1.877659
                                                      3433.997603       2.927385
                                                      1239.536048       4.335998
                                                       483.274562       5.990498
                                                       200.169116       7.350778
                                                        86.960395       7.320103
                                                        39.211283       4.901825

                          2       1    1s              336.758837       1.344521
                                                       103.721798       4.972397
                                                        39.771861       9.006443

                          3       1    1s               17.888613       6.199299

                          4       1    1s                6.964456       3.055452

                          5       1    1s                3.219809       1.713100

                          6       1    1s                1.466994       0.950017

                          7       1    1s                0.477654       0.409492

                          8       1    1s                0.216378       0.226110

                          9       1    1s                0.090236       0.117340

                         10       1    1px            2019.671137       4.421439
                                                       478.601251       6.355195
                                                       155.149425       8.430928
                                                        58.816357       9.862858
                                                        24.544513       9.802663
                                                        10.883571       7.540891
                                                         4.962479       4.124365
                                                         2.300291       1.375764
                         10       1    1py            2019.671137       4.421439
                                                       478.601251       6.355195
                                                       155.149425       8.430928
                                                        58.816357       9.862858
                                                        24.544513       9.802663
                                                        10.883571       7.540891
                                                         4.962479       4.124365
                                                         2.300291       1.375764
                         10       1    1pz            2019.671137       4.421439
                                                       478.601251       6.355195
                                                       155.149425       8.430928
                                                        58.816357       9.862858
                                                        24.544513       9.802663
                                                        10.883571       7.540891
                                                         4.962479       4.124365
                                                         2.300291       1.375764

                         11       1    1px              59.371345      14.666663
                                                         3.069459      -5.824509
                         11       1    1py              59.371345      14.666663
                                                         3.069459      -5.824509
                         11       1    1pz              59.371345      14.666663
                                                         3.069459      -5.824509

                         12       1    1px               1.063440       1.539329
                         12       1    1py               1.063440       1.539329
                         12       1    1pz               1.063440       1.539329

                         13       1    1px               0.450222       0.525682
                         13       1    1py               0.450222       0.525682
                         13       1    1pz               0.450222       0.525682

                         14       1    1px               0.182673       0.170228
                         14       1    1py               0.182673       0.170228
                         14       1    1pz               0.182673       0.170228

                         15       1    1px               0.071610       0.052803
                         15       1    1py               0.071610       0.052803
                         15       1    1pz               0.071610       0.052803

                         16       1    1dx2              3.343000      13.603420
                         16       1    1dxy              3.343000      23.561815
                         16       1    1dxz              3.343000      23.561815
                         16       1    1dy2              3.343000      13.603420
                         16       1    1dyz              3.343000      23.561815
                         16       1    1dz2              3.343000      13.603420

                         17       1    1dx2              0.807000       1.130936
                         17       1    1dxy              0.807000       1.958839
                         17       1    1dxz              0.807000       1.958839
                         17       1    1dy2              0.807000       1.130936
                         17       1    1dyz              0.807000       1.958839
                         17       1    1dz2              0.807000       1.130936

                         18       1    1dx2              0.365000       0.282112
                         18       1    1dxy              0.365000       0.488633
                         18       1    1dxz              0.365000       0.488633
                         18       1    1dy2              0.365000       0.282112
                         18       1    1dyz              0.365000       0.488633
                         18       1    1dz2              0.365000       0.282112

                         19       1    1dx2              0.154000       0.062312
                         19       1    1dxy              0.154000       0.107927
                         19       1    1dxz              0.154000       0.107927
                         19       1    1dy2              0.154000       0.062312
                         19       1    1dyz              0.154000       0.107927
                         19       1    1dz2              0.154000       0.062312

                         20       1    1fx3              0.280000       0.083958
                         20       1    1fx2y             0.280000       0.187735
                         20       1    1fx2z             0.280000       0.187735
                         20       1    1fxy2             0.280000       0.187735
                         20       1    1fxyz             0.280000       0.325166
                         20       1    1fxz2             0.280000       0.187735
                         20       1    1fy3              0.280000       0.083958
                         20       1    1fy2z             0.280000       0.187735
                         20       1    1fyz2             0.280000       0.187735
                         20       1    1fz3              0.280000       0.083958

                         21       1    1fx3              0.703000       0.666199
                         21       1    1fx2y             0.703000       1.489666
                         21       1    1fx2z             0.703000       1.489666
                         21       1    1fxy2             0.703000       1.489666
                         21       1    1fxyz             0.703000       2.580177
                         21       1    1fxz2             0.703000       1.489666
                         21       1    1fy3              0.703000       0.666199
                         21       1    1fy2z             0.703000       1.489666
                         21       1    1fyz2             0.703000       1.489666
                         21       1    1fz3              0.703000       0.666199

                         22       1    1gx4              0.597000       0.269380
                         22       1    1gx3y             0.597000       0.712712
                         22       1    1gx3z             0.597000       0.712712
                         22       1    1gx2y2            0.597000       0.920107
                         22       1    1gx2yz            0.597000       1.593672
                         22       1    1gx2z2            0.597000       0.920107
                         22       1    1gxy3             0.597000       0.712712
                         22       1    1gxy2z            0.597000       1.593672
                         22       1    1gxyz2            0.597000       1.593672
                         22       1    1gxz3             0.597000       0.712712
                         22       1    1gy4              0.597000       0.269380
                         22       1    1gy3z             0.597000       0.712712
                         22       1    1gy2z2            0.597000       0.920107
                         22       1    1gyz3             0.597000       0.712712
                         22       1    1gz4              0.597000       0.269380

     RI Auxiliary Basis Set                                                RI-5Z

       Number of orbital shell sets:                                          48
       Number of orbital shells:                                              48
       Number of primitive Cartesian functions:                               48
       Number of Cartesian basis functions:                                  335
       Number of spherical basis functions:                                  230
       Norm type:                                                              2

       Normalised Cartesian orbitals:

                        Set   Shell   Orbital            Exponent    Coefficient

                          1       1    1s              901.738000     117.279032

                          2       1    1s              197.096000      37.490260

                          3       1    1s               81.752300      19.376935

                          4       1    1s               26.055500       8.219297

                          5       1    1s               10.962400       4.293775

                          6       1    1s                4.737650       2.288665

                          7       1    1s                2.761420       1.526720

                          8       1    1s                1.228660       0.831733

                          9       1    1s                0.695379       0.542721

                         10       1    1s                0.450632       0.391991

                         11       1    1s                0.230804       0.237325

                         12       1    1s                0.133265       0.157198

                         13       1    1px             247.839000    1401.690558
                         13       1    1py             247.839000    1401.690558
                         13       1    1pz             247.839000    1401.690558

                         14       1    1px              74.952700     314.357763
                         14       1    1py              74.952700     314.357763
                         14       1    1pz              74.952700     314.357763

                         15       1    1px              26.436800      85.447861
                         15       1    1py              26.436800      85.447861
                         15       1    1pz              26.436800      85.447861

                         16       1    1px              12.270500      32.735420
                         16       1    1py              12.270500      32.735420
                         16       1    1pz              12.270500      32.735420

                         17       1    1px               5.686810      12.517742
                         17       1    1py               5.686810      12.517742
                         17       1    1pz               5.686810      12.517742

                         18       1    1px               2.784010       5.126000
                         18       1    1py               2.784010       5.126000
                         18       1    1pz               2.784010       5.126000

                         19       1    1px               1.353540       2.081033
                         19       1    1py               1.353540       2.081033
                         19       1    1pz               1.353540       2.081033

                         20       1    1px               0.837864       1.142634
                         20       1    1py               0.837864       1.142634
                         20       1    1pz               0.837864       1.142634

                         21       1    1px               0.533820       0.650405
                         21       1    1py               0.533820       0.650405
                         21       1    1pz               0.533820       0.650405

                         22       1    1px               0.344629       0.376383
                         22       1    1py               0.344629       0.376383
                         22       1    1pz               0.344629       0.376383

                         23       1    1px               0.154352       0.137905
                         23       1    1py               0.154352       0.137905
                         23       1    1pz               0.154352       0.137905

                         24       1    1dx2             74.265300    3092.323001
                         24       1    1dxy             74.265300    5356.060551
                         24       1    1dxz             74.265300    5356.060551
                         24       1    1dy2             74.265300    3092.323001
                         24       1    1dyz             74.265300    5356.060551
                         24       1    1dz2             74.265300    3092.323001

                         25       1    1dx2             23.933000     426.240245
                         25       1    1dxy             23.933000     738.269760
                         25       1    1dxz             23.933000     738.269760
                         25       1    1dy2             23.933000     426.240245
                         25       1    1dyz             23.933000     738.269760
                         25       1    1dz2             23.933000     426.240245

                         26       1    1dx2              8.160200      64.846399
                         26       1    1dxy              8.160200     112.317257
                         26       1    1dxz              8.160200     112.317257
                         26       1    1dy2              8.160200      64.846399
                         26       1    1dyz              8.160200     112.317257
                         26       1    1dz2              8.160200      64.846399

                         27       1    1dx2              4.103230      19.470617
                         27       1    1dxy              4.103230      33.724098
                         27       1    1dxz              4.103230      33.724098
                         27       1    1dy2              4.103230      19.470617
                         27       1    1dyz              4.103230      33.724098
                         27       1    1dz2              4.103230      19.470617

                         28       1    1dx2              1.563160       3.596793
                         28       1    1dxy              1.563160       6.229829
                         28       1    1dxz              1.563160       6.229829
                         28       1    1dy2              1.563160       3.596793
                         28       1    1dyz              1.563160       6.229829
                         28       1    1dz2              1.563160       3.596793

                         29       1    1dx2              0.996352       1.635430
                         29       1    1dxy              0.996352       2.832647
                         29       1    1dxz              0.996352       2.832647
                         29       1    1dy2              0.996352       1.635430
                         29       1    1dyz              0.996352       2.832647
                         29       1    1dz2              0.996352       1.635430

                         30       1    1dx2              0.569553       0.614602
                         30       1    1dxy              0.569553       1.064522
                         30       1    1dxz              0.569553       1.064522
                         30       1    1dy2              0.569553       0.614602
                         30       1    1dyz              0.569553       1.064522
                         30       1    1dz2              0.569553       0.614602

                         31       1    1dx2              0.308619       0.210329
                         31       1    1dxy              0.308619       0.364300
                         31       1    1dxz              0.308619       0.364300
                         31       1    1dy2              0.308619       0.210329
                         31       1    1dyz              0.308619       0.364300
                         31       1    1dz2              0.308619       0.210329

                         32       1    1dx2              0.166558       0.071474
                         32       1    1dxy              0.166558       0.123797
                         32       1    1dxz              0.166558       0.123797
                         32       1    1dy2              0.166558       0.071474
                         32       1    1dyz              0.166558       0.123797
                         32       1    1dz2              0.166558       0.071474

                         33       1    1fx3             15.731200     725.552124
                         33       1    1fx2y            15.731200    1622.383871
                         33       1    1fx2z            15.731200    1622.383871
                         33       1    1fxy2            15.731200    1622.383871
                         33       1    1fxyz            15.731200    2810.051294
                         33       1    1fxz2            15.731200    1622.383871
                         33       1    1fy3             15.731200     725.552124
                         33       1    1fy2z            15.731200    1622.383871
                         33       1    1fyz2            15.731200    1622.383871
                         33       1    1fz3             15.731200     725.552124

                         34       1    1fx3              7.511490     137.511228
                         34       1    1fx2y             7.511490     307.484453
                         34       1    1fx2z             7.511490     307.484453
                         34       1    1fxy2             7.511490     307.484453
                         34       1    1fxyz             7.511490     532.578695
                         34       1    1fxz2             7.511490     307.484453
                         34       1    1fy3              7.511490     137.511228
                         34       1    1fy2z             7.511490     307.484453
                         34       1    1fyz2             7.511490     307.484453
                         34       1    1fz3              7.511490     137.511228

                         35       1    1fx3              3.578070      25.921750
                         35       1    1fx2y             3.578070      57.962796
                         35       1    1fx2z             3.578070      57.962796
                         35       1    1fxy2             3.578070      57.962796
                         35       1    1fxyz             3.578070     100.394507
                         35       1    1fxz2             3.578070      57.962796
                         35       1    1fy3              3.578070      25.921750
                         35       1    1fy2z             3.578070      57.962796
                         35       1    1fyz2             3.578070      57.962796
                         35       1    1fz3              3.578070      25.921750

                         36       1    1fx3              1.337750       2.833336
                         36       1    1fx2y             1.337750       6.335532
                         36       1    1fx2z             1.337750       6.335532
                         36       1    1fxy2             1.337750       6.335532
                         36       1    1fxyz             1.337750      10.973464
                         36       1    1fxz2             1.337750       6.335532
                         36       1    1fy3              1.337750       2.833336
                         36       1    1fy2z             1.337750       6.335532
                         36       1    1fyz2             1.337750       6.335532
                         36       1    1fz3              1.337750       2.833336

                         37       1    1fx3              1.004780       1.488038
                         37       1    1fx2y             1.004780       3.327355
                         37       1    1fx2z             1.004780       3.327355
                         37       1    1fxy2             1.004780       3.327355
                         37       1    1fxyz             1.004780       5.763148
                         37       1    1fxz2             1.004780       3.327355
                         37       1    1fy3              1.004780       1.488038
                         37       1    1fy2z             1.004780       3.327355
                         37       1    1fyz2             1.004780       3.327355
                         37       1    1fz3              1.004780       1.488038

                         38       1    1fx3              0.555856       0.392753
                         38       1    1fx2y             0.555856       0.878223
                         38       1    1fx2z             0.555856       0.878223
                         38       1    1fxy2             0.555856       0.878223
                         38       1    1fxyz             0.555856       1.521126
                         38       1    1fxz2             0.555856       0.878223
                         38       1    1fy3              0.555856       0.392753
                         38       1    1fy2z             0.555856       0.878223
                         38       1    1fyz2             0.555856       0.878223
                         38       1    1fz3              0.555856       0.392753

                         39       1    1fx3              0.295632       0.094874
                         39       1    1fx2y             0.295632       0.212144
                         39       1    1fx2z             0.295632       0.212144
                         39       1    1fxy2             0.295632       0.212144
                         39       1    1fxyz             0.295632       0.367444
                         39       1    1fxz2             0.295632       0.212144
                         39       1    1fy3              0.295632       0.094874
                         39       1    1fy2z             0.295632       0.212144
                         39       1    1fyz2             0.295632       0.212144
                         39       1    1fz3              0.295632       0.094874

                         40       1    1gx4              4.797550      83.030772
                         40       1    1gx3y             4.797550     219.678774
                         40       1    1gx3z             4.797550     219.678774
                         40       1    1gx2y2            4.797550     283.604078
                         40       1    1gx2yz            4.797550     491.216673
                         40       1    1gx2z2            4.797550     283.604078
                         40       1    1gxy3             4.797550     219.678774
                         40       1    1gxy2z            4.797550     491.216673
                         40       1    1gxyz2            4.797550     491.216673
                         40       1    1gxz3             4.797550     219.678774
                         40       1    1gy4              4.797550      83.030772
                         40       1    1gy3z             4.797550     219.678774
                         40       1    1gy2z2            4.797550     283.604078
                         40       1    1gyz3             4.797550     219.678774
                         40       1    1gz4              4.797550      83.030772

                         41       1    1gx4              2.063030       8.153154
                         41       1    1gx3y             2.063030      21.571219
                         41       1    1gx3z             2.063030      21.571219
                         41       1    1gx2y2            2.063030      27.848324
                         41       1    1gx2yz            2.063030      48.234712
                         41       1    1gx2z2            2.063030      27.848324
                         41       1    1gxy3             2.063030      21.571219
                         41       1    1gxy2z            2.063030      48.234712
                         41       1    1gxyz2            2.063030      48.234712
                         41       1    1gxz3             2.063030      21.571219
                         41       1    1gy4              2.063030       8.153154
                         41       1    1gy3z             2.063030      21.571219
                         41       1    1gy2z2            2.063030      27.848324
                         41       1    1gyz3             2.063030      21.571219
                         41       1    1gz4              2.063030       8.153154

                         42       1    1gx4              1.105540       1.466443
                         42       1    1gx3y             1.105540       3.879844
                         42       1    1gx3z             1.105540       3.879844
                         42       1    1gx2y2            1.105540       5.008856
                         42       1    1gx2yz            1.105540       8.675594
                         42       1    1gx2z2            1.105540       5.008856
                         42       1    1gxy3             1.105540       3.879844
                         42       1    1gxy2z            1.105540       8.675594
                         42       1    1gxyz2            1.105540       8.675594
                         42       1    1gxz3             1.105540       3.879844
                         42       1    1gy4              1.105540       1.466443
                         42       1    1gy3z             1.105540       3.879844
                         42       1    1gy2z2            1.105540       5.008856
                         42       1    1gyz3             1.105540       3.879844
                         42       1    1gz4              1.105540       1.466443

                         43       1    1gx4              0.666541       0.364720
                         43       1    1gx3y             0.666541       0.964958
                         43       1    1gx3z             0.666541       0.964958
                         43       1    1gx2y2            0.666541       1.245755
                         43       1    1gx2yz            0.666541       2.157711
                         43       1    1gx2z2            0.666541       1.245755
                         43       1    1gxy3             0.666541       0.964958
                         43       1    1gxy2z            0.666541       2.157711
                         43       1    1gxyz2            0.666541       2.157711
                         43       1    1gxz3             0.666541       0.964958
                         43       1    1gy4              0.666541       0.364720
                         43       1    1gy3z             0.666541       0.964958
                         43       1    1gy2z2            0.666541       1.245755
                         43       1    1gyz3             0.666541       0.964958
                         43       1    1gz4              0.666541       0.364720

                         44       1    1gx4              0.340877       0.057687
                         44       1    1gx3y             0.340877       0.152626
                         44       1    1gx3z             0.340877       0.152626
                         44       1    1gx2y2            0.340877       0.197039
                         44       1    1gx2yz            0.340877       0.341282
                         44       1    1gx2z2            0.340877       0.197039
                         44       1    1gxy3             0.340877       0.152626
                         44       1    1gxy2z            0.340877       0.341282
                         44       1    1gxyz2            0.340877       0.341282
                         44       1    1gxz3             0.340877       0.152626
                         44       1    1gy4              0.340877       0.057687
                         44       1    1gy3z             0.340877       0.152626
                         44       1    1gy2z2            0.340877       0.197039
                         44       1    1gyz3             0.340877       0.152626
                         44       1    1gz4              0.340877       0.057687

                         45       1    1hx5              2.962710      25.312432
                         45       1    1hx4y             2.962710      75.937297
                         45       1    1hx4z             2.962710      75.937297
                         45       1    1hx3y2            2.962710     115.996138
                         45       1    1hx3yz            2.962710     200.911204
                         45       1    1hx3z2            2.962710     115.996138
                         45       1    1hx2y3            2.962710     115.996138
                         45       1    1hx2y2z           2.962710     259.375249
                         45       1    1hx2yz2           2.962710     259.375249
                         45       1    1hx2z3            2.962710     115.996138
                         45       1    1hxy4             2.962710      75.937297
                         45       1    1hxy3z            2.962710     200.911204
                         45       1    1hxy2z2           2.962710     259.375249
                         45       1    1hxyz3            2.962710     200.911204
                         45       1    1hxz4             2.962710      75.937297
                         45       1    1hy5              2.962710      25.312432
                         45       1    1hy4z             2.962710      75.937297
                         45       1    1hy3z2            2.962710     115.996138
                         45       1    1hy2z3            2.962710     115.996138
                         45       1    1hyz4             2.962710      75.937297
                         45       1    1hz5              2.962710      25.312432

                         46       1    1hx5              1.117250       1.063734
                         46       1    1hx4y             1.117250       3.191201
                         46       1    1hx4z             1.117250       3.191201
                         46       1    1hx3y2            1.117250       4.874639
                         46       1    1hx3yz            1.117250       8.443123
                         46       1    1hx3z2            1.117250       4.874639
                         46       1    1hx2y3            1.117250       4.874639
                         46       1    1hx2y2z           1.117250      10.900025
                         46       1    1hx2yz2           1.117250      10.900025
                         46       1    1hx2z3            1.117250       4.874639
                         46       1    1hxy4             1.117250       3.191201
                         46       1    1hxy3z            1.117250       8.443123
                         46       1    1hxy2z2           1.117250      10.900025
                         46       1    1hxyz3            1.117250       8.443123
                         46       1    1hxz4             1.117250       3.191201
                         46       1    1hy5              1.117250       1.063734
                         46       1    1hy4z             1.117250       3.191201
                         46       1    1hy3z2            1.117250       4.874639
                         46       1    1hy2z3            1.117250       4.874639
                         46       1    1hyz4             1.117250       3.191201
                         46       1    1hz5              1.117250       1.063734

                         47       1    1hx5              0.634887       0.169476
                         47       1    1hx4y             0.634887       0.508427
                         47       1    1hx4z             0.634887       0.508427
                         47       1    1hx3y2            0.634887       0.776635
                         47       1    1hx3yz            0.634887       1.345172
                         47       1    1hx3z2            0.634887       0.776635
                         47       1    1hx2y3            0.634887       0.776635
                         47       1    1hx2y2z           0.634887       1.736610
                         47       1    1hx2yz2           0.634887       1.736610
                         47       1    1hx2z3            0.634887       0.776635
                         47       1    1hxy4             0.634887       0.508427
                         47       1    1hxy3z            0.634887       1.345172
                         47       1    1hxy2z2           0.634887       1.736610
                         47       1    1hxyz3            0.634887       1.345172
                         47       1    1hxz4             0.634887       0.508427
                         47       1    1hy5              0.634887       0.169476
                         47       1    1hy4z             0.634887       0.508427
                         47       1    1hy3z2            0.634887       0.776635
                         47       1    1hy2z3            0.634887       0.776635
                         47       1    1hyz4             0.634887       0.508427
                         47       1    1hz5              0.634887       0.169476

                         48       1    1ix6              1.026470       0.493431
                         48       1    1ix5y             1.026470       1.636525
                         48       1    1ix5z             1.026470       1.636525
                         48       1    1ix4y2            1.026470       2.834544
                         48       1    1ix4yz            1.026470       4.909575
                         48       1    1ix4z2            1.026470       2.834544
                         48       1    1ix3y3            1.026470       3.353878
                         48       1    1ix3y2z           1.026470       7.499500
                         48       1    1ix3yz2           1.026470       7.499500
                         48       1    1ix3z3            1.026470       3.353878
                         48       1    1ix2y4            1.026470       2.834544
                         48       1    1ix2y3z           1.026470       7.499500
                         48       1    1ix2y2z2          1.026470       9.681812
                         48       1    1ix2yz3           1.026470       7.499500
                         48       1    1ix2z4            1.026470       2.834544
                         48       1    1ixy5             1.026470       1.636525
                         48       1    1ixy4z            1.026470       4.909575
                         48       1    1ixy3z2           1.026470       7.499500
                         48       1    1ixy2z3           1.026470       7.499500
                         48       1    1ixyz4            1.026470       4.909575
                         48       1    1ixz5             1.026470       1.636525
                         48       1    1iy6              1.026470       0.493431
                         48       1    1iy5z             1.026470       1.636525
                         48       1    1iy4z2            1.026470       2.834544
                         48       1    1iy3z3            1.026470       3.353878
                         48       1    1iy2z4            1.026470       2.834544
                         48       1    1iyz5             1.026470       1.636525
                         48       1    1iz6              1.026470       0.493431

     The atoms of this atomic kind are PAW atoms (GAPW):
       Hard Gaussian function radius:                                      1.512
       Rho0 radius:                                                        1.512
       Maximum GTO radius used for PAW projector construction:            24.566

     GAPW Soft Basis Set                                          def2-QZVP_soft

       Number of orbital shell sets:                                          22
       Number of orbital shells:                                              22
       Number of primitive Cartesian functions:                               18
       Number of Cartesian basis functions:                                   86
       Number of spherical basis functions:                                   70
       Norm type:                                                              2

       Normalised Cartesian orbitals:

                        Set   Shell   Orbital            Exponent    Coefficient

                          1       1    1s         

                          2       1    1s         

                          3       1    1s         

                          4       1    1s         

                          5       1    1s                3.219809       1.713100

                          6       1    1s                1.466994       0.950017

                          7       1    1s                0.477654       0.409492

                          8       1    1s                0.216378       0.226110

                          9       1    1s                0.090236       0.117340

                         10       1    1px               2.300291       1.375764
                         10       1    1py               2.300291       1.375764
                         10       1    1pz               2.300291       1.375764

                         11       1    1px               3.069459      -5.824509
                         11       1    1py               3.069459      -5.824509
                         11       1    1pz               3.069459      -5.824509

                         12       1    1px               1.063440       1.539329
                         12       1    1py               1.063440       1.539329
                         12       1    1pz               1.063440       1.539329

                         13       1    1px               0.450222       0.525682
                         13       1    1py               0.450222       0.525682
                         13       1    1pz               0.450222       0.525682

                         14       1    1px               0.182673       0.170228
                         14       1    1py               0.182673       0.170228
                         14       1    1pz               0.182673       0.170228

                         15       1    1px               0.071610       0.052803
                         15       1    1py               0.071610       0.052803
                         15       1    1pz               0.071610       0.052803

                         16       1    1dx2              3.343000      13.603420
                         16       1    1dxy              3.343000      23.561815
                         16       1    1dxz              3.343000      23.561815
                         16       1    1dy2              3.343000      13.603420
                         16       1    1dyz              3.343000      23.561815
                         16       1    1dz2              3.343000      13.603420

                         17       1    1dx2              0.807000       1.130936
                         17       1    1dxy              0.807000       1.958839
                         17       1    1dxz              0.807000       1.958839
                         17       1    1dy2              0.807000       1.130936
                         17       1    1dyz              0.807000       1.958839
                         17       1    1dz2              0.807000       1.130936

                         18       1    1dx2              0.365000       0.282112
                         18       1    1dxy              0.365000       0.488633
                         18       1    1dxz              0.365000       0.488633
                         18       1    1dy2              0.365000       0.282112
                         18       1    1dyz              0.365000       0.488633
                         18       1    1dz2              0.365000       0.282112

                         19       1    1dx2              0.154000       0.062312
                         19       1    1dxy              0.154000       0.107927
                         19       1    1dxz              0.154000       0.107927
                         19       1    1dy2              0.154000       0.062312
                         19       1    1dyz              0.154000       0.107927
                         19       1    1dz2              0.154000       0.062312

                         20       1    1fx3              0.280000       0.083958
                         20       1    1fx2y             0.280000       0.187735
                         20       1    1fx2z             0.280000       0.187735
                         20       1    1fxy2             0.280000       0.187735
                         20       1    1fxyz             0.280000       0.325166
                         20       1    1fxz2             0.280000       0.187735
                         20       1    1fy3              0.280000       0.083958
                         20       1    1fy2z             0.280000       0.187735
                         20       1    1fyz2             0.280000       0.187735
                         20       1    1fz3              0.280000       0.083958

                         21       1    1fx3              0.703000       0.666199
                         21       1    1fx2y             0.703000       1.489666
                         21       1    1fx2z             0.703000       1.489666
                         21       1    1fxy2             0.703000       1.489666
                         21       1    1fxyz             0.703000       2.580177
                         21       1    1fxz2             0.703000       1.489666
                         21       1    1fy3              0.703000       0.666199
                         21       1    1fy2z             0.703000       1.489666
                         21       1    1fyz2             0.703000       1.489666
                         21       1    1fz3              0.703000       0.666199

                         22       1    1gx4              0.597000       0.269380
                         22       1    1gx3y             0.597000       0.712712
                         22       1    1gx3z             0.597000       0.712712
                         22       1    1gx2y2            0.597000       0.920107
                         22       1    1gx2yz            0.597000       1.593672
                         22       1    1gx2z2            0.597000       0.920107
                         22       1    1gxy3             0.597000       0.712712
                         22       1    1gxy2z            0.597000       1.593672
                         22       1    1gxyz2            0.597000       1.593672
                         22       1    1gxz3             0.597000       0.712712
                         22       1    1gy4              0.597000       0.269380
                         22       1    1gy3z             0.597000       0.712712
                         22       1    1gy2z2            0.597000       0.920107
                         22       1    1gyz3             0.597000       0.712712
                         22       1    1gz4              0.597000       0.269380

     AE Potential information for                                            ALL

       Description:                                       All-electron potential
                                          Krack, Parrinello, PCCP 2, 2105 (2000)

       Gaussian exponent of the core charge distribution:               2.704164
       Electronic configuration (s p d ...):                           6   9   0

  2. Atomic kind: H                                     Number of atoms:       3

     Orbital Basis Set                                                 def2-QZVP

       Number of orbital shell sets:                                          10
       Number of orbital shells:                                              10
       Number of primitive Cartesian functions:                               13
       Number of Cartesian basis functions:                                   35
       Number of spherical basis functions:                                   30
       Norm type:                                                              2

       Normalised Cartesian orbitals:

                        Set   Shell   Orbital            Exponent    Coefficient

                          1       1    1s              190.691690       0.195396
                                                        28.605532       0.363661
                                                         6.509594       0.612837
                                                         1.841246       0.914889

                          2       1    1s                0.598537       0.484985

                          3       1    1s                0.213976       0.224225

                          4       1    1s                0.080316       0.107526

                          5       1    1px               2.292000       4.019836
                          5       1    1py               2.292000       4.019836
                          5       1    1pz               2.292000       4.019836

                          6       1    1px               0.838000       1.142865
                          6       1    1py               0.838000       1.142865
                          6       1    1pz               0.838000       1.142865

                          7       1    1px               0.292000       0.305963
                          7       1    1py               0.292000       0.305963
                          7       1    1pz               0.292000       0.305963

                          8       1    1dx2              2.062000       5.840024
                          8       1    1dxy              2.062000      10.115218
                          8       1    1dxz              2.062000      10.115218
                          8       1    1dy2              2.062000       5.840024
                          8       1    1dyz              2.062000      10.115218
                          8       1    1dz2              2.062000       5.840024

                          9       1    1dx2              0.662000       0.799670
                          9       1    1dxy              0.662000       1.385069
                          9       1    1dxz              0.662000       1.385069
                          9       1    1dy2              0.662000       0.799670
                          9       1    1dyz              0.662000       1.385069
                          9       1    1dz2              0.662000       0.799670

                         10       1    1fx3              1.397000       3.123535
                         10       1    1fx2y             1.397000       6.984436
                         10       1    1fx2z             1.397000       6.984436
                         10       1    1fxy2             1.397000       6.984436
                         10       1    1fxyz             1.397000      12.097399
                         10       1    1fxz2             1.397000       6.984436
                         10       1    1fy3              1.397000       3.123535
                         10       1    1fy2z             1.397000       6.984436
                         10       1    1fyz2             1.397000       6.984436
                         10       1    1fz3              1.397000       3.123535

     RI Auxiliary Basis Set                                                RI-5Z

       Number of orbital shell sets:                                          21
       Number of orbital shells:                                              21
       Number of primitive Cartesian functions:                               21
       Number of Cartesian basis functions:                                  126
       Number of spherical basis functions:                                   91
       Norm type:                                                              2

       Normalised Cartesian orbitals:

                        Set   Shell   Orbital            Exponent    Coefficient

                          1       1    1s               23.321500       7.563581

                          2       1    1s                4.922970       2.355486

                          3       1    1s                1.775100       1.096042

                          4       1    1s                0.994218       0.709613

                          5       1    1s                0.506054       0.427620

                          6       1    1s                0.236911       0.242019

                          7       1    1px               5.974580      13.314483
                          7       1    1py               5.974580      13.314483
                          7       1    1pz               5.974580      13.314483

                          8       1    1px               2.052170       3.501118
                          8       1    1py               2.052170       3.501118
                          8       1    1pz               2.052170       3.501118

                          9       1    1px               1.248660       1.881462
                          9       1    1py               1.248660       1.881462
                          9       1    1pz               1.248660       1.881462

                         10       1    1px               0.805545       1.087808
                         10       1    1py               0.805545       1.087808
                         10       1    1pz               0.805545       1.087808

                         11       1    1px               0.347892       0.380843
                         11       1    1py               0.347892       0.380843
                         11       1    1pz               0.347892       0.380843

                         12       1    1dx2              3.858160      17.481346
                         12       1    1dxy              3.858160      30.278579
                         12       1    1dxz              3.858160      30.278579
                         12       1    1dy2              3.858160      17.481346
                         12       1    1dyz              3.858160      30.278579
                         12       1    1dz2              3.858160      17.481346

                         13       1    1dx2              1.710630       4.211459
                         13       1    1dxy              1.710630       7.294461
                         13       1    1dxz              1.710630       7.294461
                         13       1    1dy2              1.710630       4.211459
                         13       1    1dyz              1.710630       7.294461
                         13       1    1dz2              1.710630       4.211459

                         14       1    1dx2              0.979237       1.586584
                         14       1    1dxy              0.979237       2.748044
                         14       1    1dxz              0.979237       2.748044
                         14       1    1dy2              0.979237       1.586584
                         14       1    1dyz              0.979237       2.748044
                         14       1    1dz2              0.979237       1.586584

                         15       1    1dx2              0.625366       0.723843
                         15       1    1dxy              0.625366       1.253733
                         15       1    1dxz              0.625366       1.253733
                         15       1    1dy2              0.625366       0.723843
                         15       1    1dyz              0.625366       1.253733
                         15       1    1dz2              0.625366       0.723843

                         16       1    1fx3              3.101510      18.792914
                         16       1    1fx2y             3.101510      42.022232
                         16       1    1fx2z             3.101510      42.022232
                         16       1    1fxy2             3.101510      42.022232
                         16       1    1fxyz             3.101510      72.784641
                         16       1    1fxz2             3.101510      42.022232
                         16       1    1fy3              3.101510      18.792914
                         16       1    1fy2z             3.101510      42.022232
                         16       1    1fyz2             3.101510      42.022232
                         16       1    1fz3              3.101510      18.792914

                         17       1    1fx3              1.198110       2.210915
                         17       1    1fx2y             1.198110       4.943756
                         17       1    1fx2z             1.198110       4.943756
                         17       1    1fxy2             1.198110       4.943756
                         17       1    1fxyz             1.198110       8.562836
                         17       1    1fxz2             1.198110       4.943756
                         17       1    1fy3              1.198110       2.210915
                         17       1    1fy2z             1.198110       4.943756
                         17       1    1fyz2             1.198110       4.943756
                         17       1    1fz3              1.198110       2.210915

                         18       1    1fx3              0.572873       0.420326
                         18       1    1fx2y             0.572873       0.939876
                         18       1    1fx2z             0.572873       0.939876
                         18       1    1fxy2             0.572873       0.939876
                         18       1    1fxyz             0.572873       1.627914
                         18       1    1fxz2             0.572873       0.939876
                         18       1    1fy3              0.572873       0.420326
                         18       1    1fy2z             0.572873       0.939876
                         18       1    1fyz2             0.572873       0.939876
                         18       1    1fz3              0.572873       0.420326

                         19       1    1gx4              2.987800      22.576266
                         19       1    1gx3y             2.987800      59.731185
                         19       1    1gx3z             2.987800      59.731185
                         19       1    1gx2y2            2.987800      77.112629
                         19       1    1gx2yz            2.987800     133.562991
                         19       1    1gx2z2            2.987800      77.112629
                         19       1    1gxy3             2.987800      59.731185
                         19       1    1gxy2z            2.987800     133.562991
                         19       1    1gxyz2            2.987800     133.562991
                         19       1    1gxz3             2.987800      59.731185
                         19       1    1gy4              2.987800      22.576266
                         19       1    1gy3z             2.987800      59.731185
                         19       1    1gy2z2            2.987800      77.112629
                         19       1    1gyz3             2.987800      59.731185
                         19       1    1gz4              2.987800      22.576266

                         20       1    1gx4              1.231920       1.974865
                         20       1    1gx3y             1.231920       5.225001
                         20       1    1gx3z             1.231920       5.225001
                         20       1    1gx2y2            1.231920       6.745447
                         20       1    1gx2yz            1.231920      11.683456
                         20       1    1gx2z2            1.231920       6.745447
                         20       1    1gxy3             1.231920       5.225001
                         20       1    1gxy2z            1.231920      11.683456
                         20       1    1gxyz2            1.231920      11.683456
                         20       1    1gxz3             1.231920       5.225001
                         20       1    1gy4              1.231920       1.974865
                         20       1    1gy3z             1.231920       5.225001
                         20       1    1gy2z2            1.231920       6.745447
                         20       1    1gyz3             1.231920       5.225001
                         20       1    1gz4              1.231920       1.974865

                         21       1    1hx5              3.247390      34.106027
                         21       1    1hx4y             3.247390     102.318080
                         21       1    1hx4z             3.247390     102.318080
                         21       1    1hx3y2            3.247390     156.293448
                         21       1    1hx3yz            3.247390     270.708193
                         21       1    1hx3z2            3.247390     156.293448
                         21       1    1hx2y3            3.247390     156.293448
                         21       1    1hx2y2z           3.247390     349.482775
                         21       1    1hx2yz2           3.247390     349.482775
                         21       1    1hx2z3            3.247390     156.293448
                         21       1    1hxy4             3.247390     102.318080
                         21       1    1hxy3z            3.247390     270.708193
                         21       1    1hxy2z2           3.247390     349.482775
                         21       1    1hxyz3            3.247390     270.708193
                         21       1    1hxz4             3.247390     102.318080
                         21       1    1hy5              3.247390      34.106027
                         21       1    1hy4z             3.247390     102.318080
                         21       1    1hy3z2            3.247390     156.293448
                         21       1    1hy2z3            3.247390     156.293448
                         21       1    1hyz4             3.247390     102.318080
                         21       1    1hz5              3.247390      34.106027

     The atoms of this atomic kind are PAW atoms (GAPW):
       Hard Gaussian function radius:                                      1.200
       Rho0 radius:                                                        1.200
       Maximum GTO radius used for PAW projector construction:            24.566

     GAPW Soft Basis Set                                          def2-QZVP_soft

       Number of orbital shell sets:                                          10
       Number of orbital shells:                                              10
       Number of primitive Cartesian functions:                               10
       Number of Cartesian basis functions:                                   35
       Number of spherical basis functions:                                   30
       Norm type:                                                              2

       Normalised Cartesian orbitals:

                        Set   Shell   Orbital            Exponent    Coefficient

                          1       1    1s                1.841246       0.914889

                          2       1    1s                0.598537       0.484985

                          3       1    1s                0.213976       0.224225

                          4       1    1s                0.080316       0.107526

                          5       1    1px               2.292000       4.019836
                          5       1    1py               2.292000       4.019836
                          5       1    1pz               2.292000       4.019836

                          6       1    1px               0.838000       1.142865
                          6       1    1py               0.838000       1.142865
                          6       1    1pz               0.838000       1.142865

                          7       1    1px               0.292000       0.305963
                          7       1    1py               0.292000       0.305963
                          7       1    1pz               0.292000       0.305963

                          8       1    1dx2              2.062000       5.840024
                          8       1    1dxy              2.062000      10.115218
                          8       1    1dxz              2.062000      10.115218
                          8       1    1dy2              2.062000       5.840024
                          8       1    1dyz              2.062000      10.115218
                          8       1    1dz2              2.062000       5.840024

                          9       1    1dx2              0.662000       0.799670
                          9       1    1dxy              0.662000       1.385069
                          9       1    1dxz              0.662000       1.385069
                          9       1    1dy2              0.662000       0.799670
                          9       1    1dyz              0.662000       1.385069
                          9       1    1dz2              0.662000       0.799670

                         10       1    1fx3              1.397000       3.123535
                         10       1    1fx2y             1.397000       6.984436
                         10       1    1fx2z             1.397000       6.984436
                         10       1    1fxy2             1.397000       6.984436
                         10       1    1fxyz             1.397000      12.097399
                         10       1    1fxz2             1.397000       6.984436
                         10       1    1fy3              1.397000       3.123535
                         10       1    1fy2z             1.397000       6.984436
                         10       1    1fyz2             1.397000       6.984436
                         10       1    1fz3              1.397000       3.123535

     AE Potential information for                                            ALL

       Description:                                       All-electron potential
                                          Krack, Parrinello, PCCP 2, 2105 (2000)

       Gaussian exponent of the core charge distribution:              12.500000
       Electronic configuration (s p d ...):                           1   0   0


 MOLECULE KIND INFORMATION


 All atoms are their own molecule, skipping detailed information


 TOTAL NUMBERS AND MAXIMUM NUMBERS

  Total number of            - Atomic kinds:                                   2
[...]
 flops   130 x   100 x    70              1820000     100.0%      0.0%      0.0%
 flops   130 x   100 x    30              2340000     100.0%      0.0%      0.0%
 flops   230 x   230 x   230            340676000     100.0%      0.0%      0.0%
 flops   230 x    91 x   230            404367600     100.0%      0.0%      0.0%
 flops    91 x   230 x   230            404367600     100.0%      0.0%      0.0%
 flops   230 x   230 x    91            404367600     100.0%      0.0%      0.0%
 flops    91 x    30 x    70            406660800     100.0%      0.0%      0.0%
 flops    91 x    91 x   230            479966760     100.0%      0.0%      0.0%
 flops   230 x    91 x    91            479966760     100.0%      0.0%      0.0%
 flops    91 x   230 x    91            479966760     100.0%      0.0%      0.0%
 flops    91 x    30 x    30            522849600     100.0%      0.0%      0.0%
 flops    91 x    91 x    91            569699676     100.0%      0.0%      0.0%
 flops    91 x    30 x   230            668085600     100.0%      0.0%      0.0%
 flops    91 x   100 x    70            677768000     100.0%      0.0%      0.0%
 flops    91 x    30 x    91            792988560     100.0%      0.0%      0.0%
 flops    91 x   100 x    30            871416000     100.0%      0.0%      0.0%
 flops    91 x   100 x   230           1113476000     100.0%      0.0%      0.0%
 flops    91 x   100 x    91           1321647600     100.0%      0.0%      0.0%
 flops   412 x    30 x    70           1841145600     100.0%      0.0%      0.0%
 flops   412 x    30 x    30           2367187200     100.0%      0.0%      0.0%
 flops   412 x    30 x   230           3024739200     100.0%      0.0%      0.0%
 flops   412 x   100 x    70           3068576000     100.0%      0.0%      0.0%
 flops   412 x    30 x    91           3590233920     100.0%      0.0%      0.0%
 flops   412 x   100 x    30           3945312000     100.0%      0.0%      0.0%
 flops    70 x   840 x    70           4058376000     100.0%      0.0%      0.0%
 flops    30 x   840 x    70           5037984000     100.0%      0.0%      0.0%
 flops   412 x   100 x   230           5041232000     100.0%      0.0%      0.0%
 flops    70 x   360 x    70           5217912000     100.0%      0.0%      0.0%
 flops    70 x   840 x    30           5217912000     100.0%      0.0%      0.0%
 flops    70 x   910 x    70           5948306000     100.0%      0.0%      0.0%
 flops   412 x   100 x    91           5983723200     100.0%      0.0%      0.0%
 flops    30 x   360 x    70           6477408000     100.0%      0.0%      0.0%
 flops    30 x   840 x    30           6477408000     100.0%      0.0%      0.0%
 flops    70 x   360 x    30           6708744000     100.0%      0.0%      0.0%
 flops    30 x   910 x    70           7384104000     100.0%      0.0%      0.0%
 flops    70 x   390 x    70           7647822000     100.0%      0.0%      0.0%
 flops    70 x   910 x    30           7647822000     100.0%      0.0%      0.0%
 flops    30 x   360 x    30           8328096000     100.0%      0.0%      0.0%
 flops    30 x   390 x    70           9493848000     100.0%      0.0%      0.0%
 flops    30 x   910 x    30           9493848000     100.0%      0.0%      0.0%
 flops    70 x   390 x    30           9832914000     100.0%      0.0%      0.0%
 flops    30 x   390 x    30          12206376000     100.0%      0.0%      0.0%
 flops   230 x   230 x   640          37918720000     100.0%      0.0%      0.0%
 flops   230 x    91 x   640          45007872000     100.0%      0.0%      0.0%
 flops    91 x   230 x   640          45007872000     100.0%      0.0%      0.0%
 flops    91 x    91 x   640          53422387200     100.0%      0.0%      0.0%
 flops inhomo. stacks                           0       0.0%      0.0%      0.0%
 flops total                       337.350915E+09     100.0%      0.0%      0.0%
 flops max/rank                     27.472376E+09     100.0%      0.0%      0.0%
 matmuls inhomo. stacks                         0       0.0%      0.0%      0.0%
 matmuls total                             101468     100.0%      0.0%      0.0%
 number of processed stacks                 31310     100.0%      0.0%      0.0%
 average stack size                                     3.2       0.0       0.0
 marketing flops                   339.659063E+09
 -------------------------------------------------------------------------------
 # multiplications                            867
 max memory usage/rank             570.847232E+06
 # max total images/rank                        5
 # max 3D layers                                1
 # MPI messages exchanged                 1087680
 MPI messages size (bytes):
  total size                         9.114956E+09
  min size                           0.000000E+00
  max size                         758.080000E+03
  average size                       8.380182E+03
 MPI breakdown and total messages size (bytes):
             size <=      128              999522                        0
       128 < size <=     8192                9828                 70005600
      8192 < size <=    32768               27318                590114880
     32768 < size <=   131072               32574               2535192576
    131072 < size <=  4194304               18438               5919662448
   4194304 < size <= 16777216                   0                        0
  16777216 < size                               0                        0
 -------------------------------------------------------------------------------

 *** WARNING in dbcsr_mm.F:278 :: Using a non-square number of MPI ranks ***
 *** might lead to poor performance. Used ranks: 40 Suggested: 36 81     ***

 -------------------------------------------------------------------------------
 -                                                                             -
 -                      DBCSR MESSAGE PASSING PERFORMANCE                      -
 -                                                                             -
 -------------------------------------------------------------------------------

 ROUTINE             CALLS      AVE VOLUME [Bytes]
 MP_Group               43
 MP_Bcast               61                     12.
 MP_Allreduce         5011                      9.
 MP_Alltoall          2779                  46040.
 MP_Wait             60360
 MP_ISend            59556                  18174.
 MP_IRecv            59508                   7601.
 MP_Memory           93194
 -------------------------------------------------------------------------------


 MEMORY| Estimated peak process memory [MiB]                                 539

 -------------------------------------------------------------------------------
 ----                             MULTIGRID INFO                            ----
 -------------------------------------------------------------------------------
 count for grid        1:         390076          cutoff [a.u.]          200.00
 count for grid        2:          58941          cutoff [a.u.]           66.67
 count for grid        3:          31960          cutoff [a.u.]           22.22
 count for grid        4:           6767          cutoff [a.u.]            7.41
 total gridlevel count  :         487744

 -------------------------------------------------------------------------------
 -                                                                             -
 -                         MESSAGE PASSING PERFORMANCE                         -
 -                                                                             -
 -------------------------------------------------------------------------------

 ROUTINE             CALLS      AVE VOLUME [Bytes]
 MP_Group                5
 MP_Bcast              267                2137306.
 MP_Allreduce          616                  89089.
 MP_Sync                81
 MP_Alltoall           303                5741169.
 MP_ISendRecv         1872                  46559.
 MP_Wait              5418
 MP_comm_split          19
 MP_ISend             7836                 103559.
 MP_IRecv             6874                 186575.
 MP_Recv                 8                   1280.
 -------------------------------------------------------------------------------


 -------------------------------------------------------------------------------
 -                                                                             -
 -                           R E F E R E N C E S                               -
 -                                                                             -
 -------------------------------------------------------------------------------
 
 CP2K version 7.0 (Development Version), the CP2K developers group (2018).
 CP2K is freely available from https://www.cp2k.org/ .

 Schuett, Ole; Messmer, Peter; Hutter, Juerg; VandeVondele, Joost. 
 Electronic Structure Calculations on Graphics Processing Units, John Wiley & Sons, Ltd, 173-190 (2016). 
 GPU-Accelerated Sparse Matrix-Matrix Multiplication for Linear Scaling Density Functional Theory.
 https://dx.doi.org/10.1002/9781118670712.ch8


 Del Ben, M; Schuett, O; Wentz, T; Messmer, P; Hutter, J;
 VandeVondele, J. 
 COMPUTER PHYSICS COMMUNICATIONS, 187, 120-129 (2015). 
 Enabling simulation at the fifth rung of DFT: Large scale RPA
 calculations with excellent time to solution.
 https://dx.doi.org/10.1016/j.cpc.2014.10.021


 Borstnik, U; VandeVondele, J; Weber, V; Hutter, J. 
 PARALLEL COMPUTING, 40 (5-6), 47-58 (2014). 
 Sparse matrix multiplication: The distributed block-compressed sparse
 row library.
 https://dx.doi.org/10.1016/j.parco.2014.03.012


 Hutter, J; Iannuzzi, M; Schiffmann, F; VandeVondele, J. 
 WILEY INTERDISCIPLINARY REVIEWS-COMPUTATIONAL MOLECULAR SCIENCE, 4 (1), 15-25 (2014). 
 CP2K: atomistic simulations of condensed matter systems.
 https://dx.doi.org/10.1002/wcms.1159


 Del Ben, M; Hutter, J; VandeVondele, J. 
 JOURNAL OF CHEMICAL THEORY AND COMPUTATION, 9 (6), 2654-2671 (2013). 
 Electron Correlation in the Condensed Phase from a Resolution of
 Identity Approach Based on the Gaussian and Plane Waves Scheme.
 https://dx.doi.org/10.1021/ct4002202


 Del Ben, M; Hutter, J; VandeVondele, J. 
 JOURNAL OF CHEMICAL THEORY AND COMPUTATION, 8 (11), 4177-4188 (2012). 
 Second-Order Moller-Plesset Perturbation Theory in the Condensed Phase:
 An Efficient and Massively Parallel Gaussian and Plane Waves Approach.
 https://dx.doi.org/10.1021/ct300531w


 Guidon, M; Hutter, J; VandeVondele, J. 
 JOURNAL OF CHEMICAL THEORY AND COMPUTATION, 5 (11), 3010-3021 (2009). 
 Robust Periodic Hartree-Fock Exchange for Large-Scale Simulations Using
 Gaussian Basis Sets.
 https://dx.doi.org/10.1021/ct900494g


 Guidon, M; Schiffmann, F; Hutter, J; VandeVondele, J. 
 JOURNAL OF CHEMICAL PHYSICS, 128 (21), 214104 (2008). 
 Ab initio molecular dynamics using hybrid density functionals.
 https://dx.doi.org/10.1063/1.2931945


 Frigo, M; Johnson, SG. 
 PROCEEDINGS OF THE IEEE, 93 (2), 216-231 (2005). 
 The design and implementation of FFTW3.
 https://dx.doi.org/10.1109/JPROC.2004.840301


 Lippert, G; Hutter, J; Parrinello, M. 
 THEORETICAL CHEMISTRY ACCOUNTS, 103 (2), 124-140 (1999). 
 The Gaussian and augmented-plane-wave density functional method for ab
 initio molecular dynamics simulations.
 https://dx.doi.org/10.1007/s002140050523


 Krack, M; Parrinello, M. 
 PHYSICAL CHEMISTRY CHEMICAL PHYSICS, 2 (10), 2105-2112 (2000). 
 All-electron ab-initio molecular dynamics.
 https://dx.doi.org/10.1039/b001167n


 Martyna, GJ; Tuckerman, ME. 
 JOURNAL OF CHEMICAL PHYSICS, 110 (6), 2810-2821 (1999). 
 A reciprocal space based method for treating long range interactions in
 ab initio and force-field-based calculations in clusters.
 https://dx.doi.org/10.1063/1.477923


 Perdew, JP; Burke, K; Ernzerhof, M. 
 PHYSICAL REVIEW LETTERS, 77 (18), 3865-3868 (1996). 
 Generalized gradient approximation made simple.
 https://dx.doi.org/10.1103/PhysRevLett.77.3865


 -------------------------------------------------------------------------------
 -                                                                             -
 -                                T I M I N G                                  -
 -                                                                             -
 -------------------------------------------------------------------------------
 SUBROUTINE                       CALLS  ASD         SELF TIME        TOTAL TIME
                                MAXIMUM       AVERAGE  MAXIMUM  AVERAGE  MAXIMUM
 CP2K                                 1  1.0    0.015    0.021   70.498   70.500
 qs_energies                          1  2.0    0.000    0.000   69.327   69.327
 mp2_main                             1  3.0    0.000    0.000   48.257   48.259
 mp2_gpw_main                         1  4.0    0.000    0.001   28.173   28.174
 rpa_ri_compute_en                    1  5.0    0.000    0.000   20.465   20.465
 rpa_num_int                          1  6.0    0.001    0.002   20.462   20.462
 scf_env_do_scf                       1  3.0    0.000    0.000   20.362   20.362
 scf_env_do_scf_inner_loop           10  4.0    0.001    0.001   20.362   20.362
 compute_vec_Sigma_x_minus_vxc_       1  4.0    0.000    0.000   20.064   20.065
 integrate_four_center                1  5.0    0.003    0.007   19.197   19.199
 qs_ks_build_kohn_sham_matrix        11  6.8    0.003    0.015   17.714   17.737
 qs_ks_update_qs_env                 10  5.0    0.000    0.000   16.861   16.881
 rebuild_ks_matrix                   10  6.0    0.000    0.000   16.860   16.880
 dbcsr_multiply_generic             867  9.9    0.050    0.060    9.543   11.068
 pw_transfer                        228  9.5    0.021    0.022    8.734    9.099
 multiply_cannon                    867 10.9    0.156    0.178    6.814    9.036
 fft_wrap_pw1pw2                    193 10.6    0.003    0.003    8.583    8.951
 calc_screening_functions             1  6.0    4.411    5.015    7.575    8.640
 fft_wrap_pw1pw2_200                126 11.7    0.558    0.637    7.957    8.320
 GW_postprocessing                    1  7.0    0.000    0.000    7.892    7.892
 compute_self_energy_im_time_gw       1  8.0    0.003    0.003    7.891    7.891
 mp_sync                             81  8.7    6.646    7.826    6.646    7.826
 mp2_ri_gpw_compute_in                1  5.0    0.000    0.000    5.963    7.700
 compute_3c_overlap_int               1  6.0    1.964    2.628    5.594    7.332
 fft3d_ps                           193 12.6    2.829    3.124    6.378    6.915
 integrate_four_center_main           1  6.0    0.000    0.000    0.814    6.700
 integrate_four_center_bin          127  7.0    0.814    6.700    0.814    6.700
 multiply_cannon_multrec          16523 11.9    2.122    6.307    2.540    6.349
 mp_sum_d                          1125  6.6    4.111    6.102    4.111    6.102
 mp_waitall_1                     62614 13.4    3.666    6.031    3.666    6.031
 rs_pw_transfer                     112  9.3    0.003    0.003    5.605    5.967
 powell_optimize                1162249  7.0    5.034    5.795    5.034    5.795
 multiply_cannon_metrocomm3       16523 11.9    0.024    0.028    2.621    5.613
 qs_vxc_create                       11  7.8    0.000    0.001    5.593    5.595
 xc_vxc_pw_create                    10  9.0    0.061    0.073    5.593    5.595
 compute_mat_P_omega                  1  7.0    0.000    0.000    5.194    5.195
 mp_sum_l                          4297 10.9    2.419    4.825    2.419    4.825
 multiply_cannon_metrocomm1       16523 11.9    0.011    0.014    0.669    4.507
 compute_3c_overlap_int_put_dbc   35152  7.0    3.444    4.374    3.444    4.374
 calc_pair_dist_radii                 1  6.0    1.704    1.935    3.575    4.115
 compute_self_energy_im_time_gw     266  9.0    0.001    0.002    3.255    4.029
 qs_rho_update_rho                   11  5.0    0.000    0.000    3.645    3.645
 mp_comm_split_direct                 8  6.6    1.900    3.643    1.900    3.643
 prepare_gapw_den                    11  7.8    0.000    0.001    3.601    3.636
 calculate_rho_elec                  11  6.0    0.101    0.913    3.587    3.587
 mp_alltoall_z22v                   193 14.6    2.736    3.528    2.736    3.528
 create_dbcsr_matrices_im_time        1  5.0    0.001    0.002    1.742    3.432
 density_rs2pw                       11  7.0    0.001    0.001    3.188    3.351
 sum_up_and_integrate                11  7.8    0.024    0.038    2.918    3.231
 integrate_v_rspace                  11  8.8    0.049    0.410    2.893    3.210
 mp_waitany                        3080 11.3    2.664    3.184    2.664    3.184
 dbcsr_trace_a_b_d                  554  9.9    0.004    0.041    1.301    3.138
 compute_self_energy_im_time_gw     266  9.0    0.001    0.001    1.277    3.117
 xc_rho_set_and_dset_create          10 10.0    0.040    0.050    2.569    2.935
 rpa_num_int_im_t_alloc_mat_gw        1  7.0    0.000    0.000    0.189    2.932
 allocate_matrices_gw_im_time         1  8.0    0.000    0.000    0.189    2.932
 get_mat_3c_overl_int_gw              1  9.0    0.001    0.002    0.188    2.931
 fill_mat_3c_overl_int_gw             1 10.0    0.000    0.000    0.160    2.904
 rpa_num_int_im_t_alloc_mat_24        1  7.0    0.000    0.000    2.749    2.896
 cp_fm_copy_general                   2  8.0    0.000    0.000    2.747    2.895
 cp_fm_start_copy_general             2  9.0    0.001    0.002    2.747    2.894
 mp_allgather_i                       4 10.0    2.746    2.892    2.746    2.892
 GW3c_fill_mat                        1 11.0    0.064    1.413    0.137    2.876
 compute_mat_P_omega_calc_P          14  8.0    0.000    0.000    2.515    2.758
 potential_pw2rs                     11  9.8    0.002    0.005    2.742    2.747
 mp_sum_dm                          138  7.6    1.748    2.572    1.748    2.572
 integrate_four_center_load           1  6.0    0.000    0.001    1.332    2.486
 hfx_load_balance                     1  7.0    0.000    0.001    1.332    2.486
 calculate_vxc_atom                  11  7.8    0.018    0.292    2.461    2.468
 yz_to_x                             97 13.2    0.328    0.387    1.885    2.453
 rs_pw_transfer_PW2RS_200            23 10.7    0.969    1.117    2.179    2.395
 rs_pw_transfer_RS2PW_200            23  9.8    0.901    1.079    2.127    2.314
 hfx_load_balance_range               1  8.0    0.002    0.053    1.132    2.287
 gaVxcgb_GC                          20  9.0    0.063    2.108    0.063    2.108
 compute_self_energy_im_time_gw     266  9.0    0.001    0.002    1.882    1.906
 compute_self_energy_im_time_gw     266  9.0    0.001    0.002    1.399    1.882
 put_rho0_on_grid                    11  8.8    0.011    0.018    1.825    1.860
 x_to_yz                             96 14.1    0.477    0.569    1.656    1.852
 make_m2s                          1734 10.9    0.040    0.044    1.408    1.852
 integrate_vhg0_rspace               11  7.8    0.093    0.121    1.621    1.774
 mp_sum_dv                           58  8.3    1.342    1.774    1.342    1.774
 calculate_rho_atom                  22  8.8    0.476    1.628    0.476    1.628
 make_images                       1734 11.9    0.057    0.065    1.213    1.413
 -------------------------------------------------------------------------------

 The number of warnings for this run is : 3
 
 -------------------------------------------------------------------------------
  **** **** ******  **  PROGRAM ENDED AT                 2019-05-31 17:06:46.233
 ***** ** ***  *** **   PROGRAM RAN ON                                    tcopt4
 **    ****   ******    PROGRAM RAN BY                                   wilhelm
 ***** **    ** ** **   PROGRAM PROCESS ID                                 81333
  **** **  *******  **  PROGRAM STOPPED IN /data/wilhelm/2_job_test/11_GW100/3_c
                                           alcs/49_PH3
