 DBCSR| CPU Multiplication driver                                           BLAS
 DBCSR| Multrec recursion limit                                              512
 DBCSR| Multiplication stack size                                           1000
 DBCSR| Maximum elements for images                                    UNLIMITED
 DBCSR| Multiplicative factor virtual images                                   1
 DBCSR| Use multiplication densification                                       T
 DBCSR| Multiplication size stacks                                             3
 DBCSR| Number of 3D layers                                               SINGLE
 DBCSR| Use MPI memory allocation                                              T
 DBCSR| Use RMA algorithm                                                      F
 DBCSR| Use Communication thread                                               T
 DBCSR| Communication thread load                                             87


  **** **** ******  **  PROGRAM STARTED AT               2019-05-31 17:33:17.304
 ***** ** ***  *** **   PROGRAM STARTED ON                                tcopt4
 **    ****   ******    PROGRAM STARTED BY                               wilhelm
 ***** **    ** ** **   PROGRAM PROCESS ID                                 85813
  **** **  *******  **  PROGRAM STARTED IN /data/wilhelm/2_job_test/11_GW100/3_c
                                           alcs/60_BrK

 CP2K| version string:                    CP2K version 7.0 (Development Version)
 CP2K| source code revision number:                                  git:026fb12
 CP2K| cp2kflags: libint fftw3 libxc pexsi elpa=201705 parallel mpi3 scalapack q
 CP2K|            uip libderiv_max_am1=5 libint_max_am=6
 CP2K| is freely available from                            https://www.cp2k.org/
 CP2K| Program compiled at                         Sat May 11 13:15:02 CEST 2019
 CP2K| Program compiled on                                                tcopt4
 CP2K| Program compiled for                            local_valgrind_March_2019
 CP2K| Data directory path              /data/wilhelm/1_git_repository/cp2k/data
 CP2K| Input file name                                                    GW.inp

 GLOBAL| Force Environment number                                              1
 GLOBAL| Basis set file name                              BASIS_def2_QZVP_RI_ALL
 GLOBAL| Potential file name                                           POTENTIAL
 GLOBAL| MM Potential file name                                     MM_POTENTIAL
 GLOBAL| Coordinate file name                                         60_BrK.xyz
 GLOBAL| Method name                                                        CP2K
 GLOBAL| Project name                                                   ALL_ELEC
 GLOBAL| Preferred FFT library                                             FFTW3
 GLOBAL| Preferred diagonalization lib.                                       SL
 GLOBAL| Run type                                                         ENERGY
 GLOBAL| All-to-all communication in single precision                          F
 GLOBAL| FFTs using library dependent lengths                                  F
 GLOBAL| Global print level                                               MEDIUM
 GLOBAL| MPI I/O enabled                                                       T
 GLOBAL| Total number of message passing processes                            40
 GLOBAL| Number of threads for this process                                    1
 GLOBAL| This output is from process                                           0
 GLOBAL| CPU model name :  Intel(R) Xeon(R) CPU E5-2697 v3 @ 2.60GHz

 MEMORY| system memory details [Kb]
 MEMORY|                        rank 0           min           max       average
 MEMORY| MemTotal            396954008     396954008     396954008     396954008
 MEMORY| MemFree             375983080     375983080     375983080     375983080
 MEMORY| Buffers                339848        339848        339848        339848
 MEMORY| Cached               16142280      16142280      16142280      16142280
 MEMORY| Slab                   619256        619256        619256        619256
 MEMORY| SReclaimable           471844        471844        471844        471844
 MEMORY| MemLikelyFree       392937052     392937052     392937052     392937052


 *** Fundamental physical constants (SI units) ***

 *** Literature: B. J. Mohr and B. N. Taylor,
 ***             CODATA recommended values of the fundamental physical
 ***             constants: 2006, Web Version 5.1
 ***             http://physics.nist.gov/constants

 Speed of light in vacuum [m/s]                             2.99792458000000E+08
 Magnetic constant or permeability of vacuum [N/A**2]       1.25663706143592E-06
 Electric constant or permittivity of vacuum [F/m]          8.85418781762039E-12
 Planck constant (h) [J*s]                                  6.62606896000000E-34
 Planck constant (h-bar) [J*s]                              1.05457162825177E-34
 Elementary charge [C]                                      1.60217648700000E-19
 Electron mass [kg]                                         9.10938215000000E-31
 Electron g factor [ ]                                     -2.00231930436220E+00
 Proton mass [kg]                                           1.67262163700000E-27
 Fine-structure constant                                    7.29735253760000E-03
 Rydberg constant [1/m]                                     1.09737315685270E+07
 Avogadro constant [1/mol]                                  6.02214179000000E+23
 Boltzmann constant [J/K]                                   1.38065040000000E-23
 Atomic mass unit [kg]                                      1.66053878200000E-27
 Bohr radius [m]                                            5.29177208590000E-11

 *** Conversion factors ***

 [u] -> [a.u.]                                              1.82288848426455E+03
 [Angstrom] -> [Bohr] = [a.u.]                              1.88972613288564E+00
 [a.u.] = [Bohr] -> [Angstrom]                              5.29177208590000E-01
 [a.u.] -> [s]                                              2.41888432650478E-17
 [a.u.] -> [fs]                                             2.41888432650478E-02
 [a.u.] -> [J]                                              4.35974393937059E-18
 [a.u.] -> [N]                                              8.23872205491840E-08
 [a.u.] -> [K]                                              3.15774647902944E+05
 [a.u.] -> [kJ/mol]                                         2.62549961709828E+03
 [a.u.] -> [kcal/mol]                                       6.27509468713739E+02
 [a.u.] -> [Pa]                                             2.94210107994716E+13
 [a.u.] -> [bar]                                            2.94210107994716E+08
 [a.u.] -> [atm]                                            2.90362800883016E+08
 [a.u.] -> [eV]                                             2.72113838565563E+01
 [a.u.] -> [Hz]                                             6.57968392072181E+15
 [a.u.] -> [1/cm] (wave numbers)                            2.19474631370540E+05
 [a.u./Bohr**2] -> [1/cm]                                   5.14048714338585E+03
 

 CELL_TOP| Volume [angstrom^3]:                                         4096.000
 CELL_TOP| Vector a [angstrom    16.000     0.000     0.000    |a| =      16.000
 CELL_TOP| Vector b [angstrom     0.000    16.000     0.000    |b| =      16.000
 CELL_TOP| Vector c [angstrom     0.000     0.000    16.000    |c| =      16.000
 CELL_TOP| Angle (b,c), alpha [degree]:                                   90.000
 CELL_TOP| Angle (a,c), beta  [degree]:                                   90.000
 CELL_TOP| Angle (a,b), gamma [degree]:                                   90.000
 CELL_TOP| Numerically orthorhombic:                                         YES

 GENERATE|  Preliminary Number of Bonds generated:                             0
 GENERATE|  Achieved consistency in connectivity generation.

 CELL| Volume [angstrom^3]:                                             4096.000
 CELL| Vector a [angstrom]:      16.000     0.000     0.000    |a| =      16.000
 CELL| Vector b [angstrom]:       0.000    16.000     0.000    |b| =      16.000
 CELL| Vector c [angstrom]:       0.000     0.000    16.000    |c| =      16.000
 CELL| Angle (b,c), alpha [degree]:                                       90.000
 CELL| Angle (a,c), beta  [degree]:                                       90.000
 CELL| Angle (a,b), gamma [degree]:                                       90.000
 CELL| Numerically orthorhombic:                                             YES

 CELL_REF| Volume [angstrom^3]:                                         4096.000
 CELL_REF| Vector a [angstrom    16.000     0.000     0.000    |a| =      16.000
 CELL_REF| Vector b [angstrom     0.000    16.000     0.000    |b| =      16.000
 CELL_REF| Vector c [angstrom     0.000     0.000    16.000    |c| =      16.000
 CELL_REF| Angle (b,c), alpha [degree]:                                   90.000
 CELL_REF| Angle (a,c), beta  [degree]:                                   90.000
 CELL_REF| Angle (a,b), gamma [degree]:                                   90.000
 CELL_REF| Numerically orthorhombic:                                         YES

 *******************************************************************************
 *******************************************************************************
 **                                                                           **
 **     #####                         ##              ##                      **
 **    ##   ##            ##          ##              ##                      **
 **   ##     ##                       ##            ######                    **
 **   ##     ##  ##   ##  ##   #####  ##  ##   ####   ##    #####    #####    **
 **   ##     ##  ##   ##  ##  ##      ## ##   ##      ##   ##   ##  ##   ##   **
 **   ##  ## ##  ##   ##  ##  ##      ####     ###    ##   ######   ######    **
 **    ##  ###   ##   ##  ##  ##      ## ##      ##   ##   ##       ##        **
 **     #######   #####   ##   #####  ##  ##  ####    ##    #####   ##        **
 **           ##                                                    ##        **
 **                                                                           **
 **                                                ... make the atoms dance   **
 **                                                                           **
 **            Copyright (C) by CP2K developers group (2000 - 2019)           **
 **                                                                           **
 *******************************************************************************

 DFT| Spin restricted Kohn-Sham (RKS) calculation                            RKS
 DFT| Multiplicity                                                             1
 DFT| Number of spin states                                                    1
 DFT| Charge                                                                   0
 DFT| Self-interaction correction (SIC)                                       NO
 DFT| Cutoffs: density                                              1.000000E-10
 DFT|          gradient                                             1.000000E-10
 DFT|          tau                                                  1.000000E-10
 DFT|          cutoff_smoothing_range                               0.000000E+00
 DFT| XC density smoothing                                                  NONE
 DFT| XC derivatives                                                          PW
 FUNCTIONAL| ROUTINE=NEW
 FUNCTIONAL| PBE:
 FUNCTIONAL| J.P.Perdew, K.Burke, M.Ernzerhof, Phys. Rev. Letter, vol. 77, n 18,
 FUNCTIONAL|  pp. 3865-3868, (1996){spin unpolarized}                           

 QS| Method:                                                                GAPW
 QS| Density plane wave grid type                        NON-SPHERICAL FULLSPACE
 QS| Number of grid levels:                                                    4
 QS| Density cutoff [a.u.]:                                                200.0
 QS| Multi grid cutoff [a.u.]: 1) grid level                               200.0
 QS|                           2) grid level                                66.7
 QS|                           3) grid level                                22.2
 QS|                           4) grid level                                 7.4
 QS| Grid level progression factor:                                          3.0
 QS| Relative density cutoff [a.u.]:                                        25.0
 QS| Consistent realspace mapping and integration 
 QS| Interaction thresholds: eps_pgf_orb:                                1.0E-05
 QS|                         eps_filter_matrix:                          0.0E+00
 QS|                         eps_core_charge:                            1.0E-12
 QS|                         eps_rho_gspace:                             1.0E-10
 QS|                         eps_rho_rspace:                             1.0E-10
 QS|                         eps_gvg_rspace:                             1.0E-05
 QS|                         eps_ppl:                                    1.0E-02
 QS|                         eps_ppnl:                                   1.0E-07
 QS| GAPW|                   eps_fit:                                    1.0E-04
 QS| GAPW|                   eps_iso:                                    1.0E-12
 QS| GAPW|                   eps_svd:                                    1.0E-08
 QS| GAPW|                   eps_cpc:                                    1.0E-10
 QS| GAPW|   atom-r-grid: quadrature:                 GC_LOG                        
 QS| GAPW|      atom-s-grid:  max l :                                          8
 QS| GAPW|      max_l_rho0 :                                                   2


 ATOMIC KIND INFORMATION

  1. Atomic kind: Br                                    Number of atoms:       1

     Orbital Basis Set                                                 def2-QZVP

       Number of orbital shell sets:                                          25
       Number of orbital shells:                                              25
       Number of primitive Cartesian functions:                               57
       Number of Cartesian basis functions:                                   91
       Number of spherical basis functions:                                   75
       Norm type:                                                              2

       Normalised Cartesian orbitals:

                        Set   Shell   Orbital            Exponent    Coefficient

                          1       1    1s         10629044.264000       0.896262
                                                   1591918.273900       1.677521
                                                    362333.984370       2.905994
                                                    102643.111410       4.761908
                                                     33489.846668       7.458709
                                                     12091.247190      11.209575
                                                      4716.190879      16.019684
                                                      1956.159808      21.262982
                                                       853.085958      24.764346
                                                       387.966337      22.753992
                                                       182.851566      13.316602

                          2       1    1s             3240.408642       1.697146
                                                      1000.463193       7.299750
                                                       383.373017      17.919586
                                                       166.039297      22.829144

                          3       1    1s               87.919907      20.463292

                          4       1    1s               35.675840      10.403770

                          5       1    1s               17.543658       6.109423

                          6       1    1s                8.447366       3.531434

                          7       1    1s                3.966618       2.003205

                          8       1    1s                1.835682       1.123979

                          9       1    1s                0.590848       0.480305

                         10       1    1s                0.288632       0.280652

                         11       1    1s                0.121534       0.146701

                         12       1    1px           26566.476579      30.071341
                                                      6290.508857      44.114982
                                                      2043.317841      62.163378
                                                       781.672210      81.566146
                                                       331.510789      97.019501
                                                       151.091987      99.586893
                                                        72.395278      81.016347
                                                        35.869511      46.174880
                                                        18.139906      14.495363
                                                         9.046669       1.707974
                         12       1    1py           26566.476579      30.071341
                                                      6290.508857      44.114982
                                                      2043.317841      62.163378
                                                       781.672210      81.566146
                                                       331.510789      97.019501
                                                       151.091987      99.586893
                                                        72.395278      81.016347
                                                        35.869511      46.174880
                                                        18.139906      14.495363
                                                         9.046669       1.707974
                         12       1    1pz           26566.476579      30.071341
                                                      6290.508857      44.114982
                                                      2043.317841      62.163378
                                                       781.672210      81.566146
                                                       331.510789      97.019501
                                                       151.091987      99.586893
                                                        72.395278      81.016347
                                                        35.869511      46.174880
                                                        18.139906      14.495363
                                                         9.046669       1.707974

                         13       1    1px             253.718221      -2.674745
                                                        97.250818      -6.107170
                                                        42.034898      -6.631684
                                                         9.968567       8.255611
                                                         4.939585       7.588135
                         13       1    1py             253.718221      -2.674745
                                                        97.250818      -6.107170
                                                        42.034898      -6.631684
                                                         9.968567       8.255611
                                                         4.939585       7.588135
                         13       1    1pz             253.718221      -2.674745
                                                        97.250818      -6.107170
                                                        42.034898      -6.631684
                                                         9.968567       8.255611
                                                         4.939585       7.588135

                         14       1    1px               2.438285       4.343057
                         14       1    1py               2.438285       4.343057
                         14       1    1pz               2.438285       4.343057

                         15       1    1px               1.180000       1.753043
                         15       1    1py               1.180000       1.753043
                         15       1    1pz               1.180000       1.753043

                         16       1    1px               0.510476       0.615048
                         16       1    1py               0.510476       0.615048
                         16       1    1pz               0.510476       0.615048

                         17       1    1px               0.212159       0.205242
                         17       1    1py               0.212159       0.205242
                         17       1    1pz               0.212159       0.205242

                         18       1    1px               0.083944       0.064406
                         18       1    1py               0.083944       0.064406
                         18       1    1pz               0.083944       0.064406

                         19       1    1dx2            601.444345      87.762253
                                                       180.857186      97.643075
                                                        69.986806      93.990234
                                                        30.324710      72.327174
                                                        14.027909      42.936487
                                                         6.651170      17.742874
                                                         3.135417       4.930180
                         19       1    1dxy            601.444345     152.008682
                                                       180.857186     169.122766
                                                        69.986806     162.795861
                                                        30.324710     125.274341
                                                        14.027909      74.368177
                                                         6.651170      30.731559
                                                         3.135417       8.539322
                         19       1    1dxz            601.444345     152.008682
                                                       180.857186     169.122766
                                                        69.986806     162.795861
                                                        30.324710     125.274341
                                                        14.027909      74.368177
                                                         6.651170      30.731559
                                                         3.135417       8.539322
                         19       1    1dy2            601.444345      87.762253
                                                       180.857186      97.643075
                                                        69.986806      93.990234
                                                        30.324710      72.327174
                                                        14.027909      42.936487
                                                         6.651170      17.742874
                                                         3.135417       4.930180
                         19       1    1dyz            601.444345     152.008682
                                                       180.857186     169.122766
                                                        69.986806     162.795861
                                                        30.324710     125.274341
                                                        14.027909      74.368177
                                                         6.651170      30.731559
                                                         3.135417       8.539322
                         19       1    1dz2            601.444345      87.762253
                                                       180.857186      97.643075
                                                        69.986806      93.990234
                                                        30.324710      72.327174
                                                        14.027909      42.936487
                                                         6.651170      17.742874
                                                         3.135417       4.930180

                         20       1    1dx2              1.439359       3.113189
                         20       1    1dxy              1.439359       5.392202
                         20       1    1dxz              1.439359       5.392202
                         20       1    1dy2              1.439359       3.113189
                         20       1    1dyz              1.439359       5.392202
                         20       1    1dz2              1.439359       3.113189

                         21       1    1dx2              0.593504       0.660543
                         21       1    1dxy              0.593504       1.144095
                         21       1    1dxz              0.593504       1.144095
                         21       1    1dy2              0.593504       0.660543
                         21       1    1dyz              0.593504       1.144095
                         21       1    1dz2              0.593504       0.660543

                         22       1    1dx2              0.230000       0.125728
                         22       1    1dxy              0.230000       0.217768
                         22       1    1dxz              0.230000       0.217768
                         22       1    1dy2              0.230000       0.125728
                         22       1    1dyz              0.230000       0.217768
                         22       1    1dz2              0.230000       0.125728

                         23       1    1fx3              0.340700       0.130554
                         23       1    1fx2y             0.340700       0.291929
                         23       1    1fx2z             0.340700       0.291929
                         23       1    1fxy2             0.340700       0.291929
                         23       1    1fxyz             0.340700       0.505635
                         23       1    1fxz2             0.340700       0.291929
                         23       1    1fy3              0.340700       0.130554
                         23       1    1fy2z             0.340700       0.291929
                         23       1    1fyz2             0.340700       0.291929
                         23       1    1fz3              0.340700       0.130554

                         24       1    1fx3              0.825700       0.956763
                         24       1    1fx2y             0.825700       2.139388
                         24       1    1fx2z             0.825700       2.139388
                         24       1    1fxy2             0.825700       2.139388
                         24       1    1fxyz             0.825700       3.705529
                         24       1    1fxz2             0.825700       2.139388
                         24       1    1fy3              0.825700       0.956763
                         24       1    1fy2z             0.825700       2.139388
                         24       1    1fyz2             0.825700       2.139388
                         24       1    1fz3              0.825700       0.956763

                         25       1    1gx4              0.649100       0.339072
                         25       1    1gx3y             0.649100       0.897101
                         25       1    1gx3z             0.649100       0.897101
                         25       1    1gx2y2            0.649100       1.158152
                         25       1    1gx2yz            0.649100       2.005979
                         25       1    1gx2z2            0.649100       1.158152
                         25       1    1gxy3             0.649100       0.897101
                         25       1    1gxy2z            0.649100       2.005979
                         25       1    1gxyz2            0.649100       2.005979
                         25       1    1gxz3             0.649100       0.897101
                         25       1    1gy4              0.649100       0.339072
                         25       1    1gy3z             0.649100       0.897101
                         25       1    1gy2z2            0.649100       1.158152
                         25       1    1gyz3             0.649100       0.897101
                         25       1    1gz4              0.649100       0.339072

     RI Auxiliary Basis Set                                                RI-5Z

       Number of orbital shell sets:                                         124
       Number of orbital shells:                                             124
       Number of primitive Cartesian functions:                              124
       Number of Cartesian basis functions:                                 1138
       Number of spherical basis functions:                                  716
       Norm type:                                                              2

       Normalised Cartesian orbitals:

                        Set   Shell   Orbital            Exponent    Coefficient

                          1       1    1s          1000000.000000   22537.725872

                          2       1    1s           500000.000000   13401.011981

                          3       1    1s           200000.000000    6740.352183

                          4       1    1s           100000.000000    4007.837387

                          5       1    1s            50000.000000    2383.074368

                          6       1    1s            20000.000000    1198.622950

                          7       1    1s            10000.000000     712.705470

                          8       1    1s             5000.000000     423.777208

                          9       1    1s             2000.000000     213.148651

                         10       1    1s             1000.000000     126.738946

                         11       1    1s              500.000000      75.359428

                         12       1    1s              200.000000      37.903786

                         13       1    1s              100.000000      22.537726

                         14       1    1s               50.000000      13.401012

                         15       1    1s               20.000000       6.740352

                         16       1    1s               10.000000       4.007837

                         17       1    1s                5.000000       2.383074

                         18       1    1s                2.000000       1.198623

                         19       1    1s                1.000000       0.712705

                         20       1    1s                0.500000       0.423777

                         21       1    1s                0.200000       0.213149

                         22       1    1s                0.100000       0.126739

                         23       1    1s                0.050000       0.075359

                         24       1    1s                0.020000       0.037904

                         25       1    1s                0.010000       0.022538

                         26       1    1px          500000.00000018951892.893596
                         26       1    1py          500000.00000018951892.893596
                         26       1    1pz          500000.00000018951892.893596

                         27       1    1px          200000.000000 6028754.269202
                         27       1    1py          200000.000000 6028754.269202
                         27       1    1pz          200000.000000 6028754.269202

                         28       1    1px          100000.000000 2534778.926709
                         28       1    1py          100000.000000 2534778.926709
                         28       1    1pz          100000.000000 2534778.926709

                         29       1    1px           50000.000000 1065743.256465
                         29       1    1py           50000.000000 1065743.256465
                         29       1    1pz           50000.000000 1065743.256465

                         30       1    1px           20000.000000  339021.766499
                         30       1    1py           20000.000000  339021.766499
                         30       1    1pz           20000.000000  339021.766499

                         31       1    1px           10000.000000  142541.094071
                         31       1    1py           10000.000000  142541.094071
                         31       1    1pz           10000.000000  142541.094071

                         32       1    1px            5000.000000   59931.147515
                         32       1    1py            5000.000000   59931.147515
                         32       1    1pz            5000.000000   59931.147515

                         33       1    1px            2000.000000   19064.594944
                         33       1    1py            2000.000000   19064.594944
                         33       1    1pz            2000.000000   19064.594944

                         34       1    1px            1000.000000    8015.674773
                         34       1    1py            1000.000000    8015.674773
                         34       1    1pz            1000.000000    8015.674773

                         35       1    1px             500.000000    3370.176091
                         35       1    1py             500.000000    3370.176091
                         35       1    1pz             500.000000    3370.176091

                         36       1    1px             200.000000    1072.080959
                         36       1    1py             200.000000    1072.080959
                         36       1    1pz             200.000000    1072.080959

                         37       1    1px             100.000000     450.754517
                         37       1    1py             100.000000     450.754517
                         37       1    1pz             100.000000     450.754517

                         38       1    1px              50.000000     189.518929
                         38       1    1py              50.000000     189.518929
                         38       1    1pz              50.000000     189.518929

                         39       1    1px              20.000000      60.287543
                         39       1    1py              20.000000      60.287543
                         39       1    1pz              20.000000      60.287543

                         40       1    1px              10.000000      25.347789
                         40       1    1py              10.000000      25.347789
                         40       1    1pz              10.000000      25.347789

                         41       1    1px               5.000000      10.657433
                         41       1    1py               5.000000      10.657433
                         41       1    1pz               5.000000      10.657433

                         42       1    1px               2.000000       3.390218
                         42       1    1py               2.000000       3.390218
                         42       1    1pz               2.000000       3.390218

                         43       1    1px               1.000000       1.425411
                         43       1    1py               1.000000       1.425411
                         43       1    1pz               1.000000       1.425411

                         44       1    1px               0.500000       0.599311
                         44       1    1py               0.500000       0.599311
                         44       1    1pz               0.500000       0.599311

                         45       1    1px               0.200000       0.190646
                         45       1    1py               0.200000       0.190646
                         45       1    1pz               0.200000       0.190646

                         46       1    1px               0.100000       0.080157
                         46       1    1py               0.100000       0.080157
                         46       1    1pz               0.100000       0.080157

                         47       1    1px               0.050000       0.033702
                         47       1    1py               0.050000       0.033702
                         47       1    1pz               0.050000       0.033702

                         48       1    1px               0.020000       0.010721
                         48       1    1py               0.020000       0.010721
                         48       1    1pz               0.020000       0.010721

                         49       1    1px               0.010000       0.004508
                         49       1    1py               0.010000       0.004508
                         49       1    1pz               0.010000       0.004508

                         50       1    1dx2         100000.000000***************
                         50       1    1dxy         100000.000000***************
                         50       1    1dxz         100000.000000***************
                         50       1    1dy2         100000.000000***************
                         50       1    1dyz         100000.000000***************
                         50       1    1dz2         100000.000000***************

                         51       1    1dx2          50000.000000***************
                         51       1    1dxy          50000.000000***************
                         51       1    1dxz          50000.000000***************
                         51       1    1dy2          50000.000000***************
                         51       1    1dyz          50000.000000***************
                         51       1    1dz2          50000.000000***************

                         52       1    1dx2          20000.00000055362022.641303
                         52       1    1dxy          20000.00000095889836.024516
                         52       1    1dxz          20000.00000095889836.024516
                         52       1    1dy2          20000.00000055362022.641303
                         52       1    1dyz          20000.00000095889836.024516
                         52       1    1dz2          20000.00000055362022.641303

                         53       1    1dx2          10000.00000016459227.806495
                         53       1    1dxy          10000.00000028508218.814200
                         53       1    1dxz          10000.00000028508218.814200
                         53       1    1dy2          10000.00000016459227.806495
                         53       1    1dyz          10000.00000028508218.814200
                         53       1    1dz2          10000.00000016459227.806495

                         54       1    1dx2           5000.000000 4893357.703734
                         54       1    1dxy           5000.000000 8475544.162475
                         54       1    1dxz           5000.000000 8475544.162475
                         54       1    1dy2           5000.000000 4893357.703734
                         54       1    1dyz           5000.000000 8475544.162475
                         54       1    1dz2           5000.000000 4893357.703734

                         55       1    1dx2           2000.000000  984491.449611
                         55       1    1dxy           2000.000000 1705189.210344
                         55       1    1dxz           2000.000000 1705189.210344
                         55       1    1dy2           2000.000000  984491.449611
                         55       1    1dyz           2000.000000 1705189.210344
                         55       1    1dz2           2000.000000  984491.449611

                         56       1    1dx2           1000.000000  292691.059134
                         56       1    1dxy           1000.000000  506955.785342
                         56       1    1dxz           1000.000000  506955.785342
                         56       1    1dy2           1000.000000  292691.059134
                         56       1    1dyz           1000.000000  506955.785342
                         56       1    1dz2           1000.000000  292691.059134

                         57       1    1dx2            500.000000   87017.572505
                         57       1    1dxy            500.000000  150718.856730
                         57       1    1dxz            500.000000  150718.856730
                         57       1    1dy2            500.000000   87017.572505
                         57       1    1dyz            500.000000  150718.856730
                         57       1    1dz2            500.000000   87017.572505

                         58       1    1dx2            200.000000   17507.008742
                         58       1    1dxy            200.000000   30323.028630
                         58       1    1dxz            200.000000   30323.028630
                         58       1    1dy2            200.000000   17507.008742
                         58       1    1dyz            200.000000   30323.028630
                         58       1    1dz2            200.000000   17507.008742

                         59       1    1dx2            100.000000    5204.864840
                         59       1    1dxy            100.000000    9015.090349
                         59       1    1dxz            100.000000    9015.090349
                         59       1    1dy2            100.000000    5204.864840
                         59       1    1dyz            100.000000    9015.090349
                         59       1    1dz2            100.000000    5204.864840

                         60       1    1dx2             50.000000    1547.415575
                         60       1    1dxy             50.000000    2680.202396
                         60       1    1dxz             50.000000    2680.202396
                         60       1    1dy2             50.000000    1547.415575
                         60       1    1dyz             50.000000    2680.202396
                         60       1    1dz2             50.000000    1547.415575

                         61       1    1dx2             20.000000     311.323532
                         61       1    1dxy             20.000000     539.228175
                         61       1    1dxz             20.000000     539.228175
                         61       1    1dy2             20.000000     311.323532
                         61       1    1dyz             20.000000     539.228175
                         61       1    1dz2             20.000000     311.323532

                         62       1    1dx2             10.000000      92.557040
                         62       1    1dxy             10.000000     160.313495
                         62       1    1dxz             10.000000     160.313495
                         62       1    1dy2             10.000000      92.557040
                         62       1    1dyz             10.000000     160.313495
                         62       1    1dz2             10.000000      92.557040

                         63       1    1dx2              5.000000      27.517373
                         63       1    1dxy              5.000000      47.661487
                         63       1    1dxz              5.000000      47.661487
                         63       1    1dy2              5.000000      27.517373
                         63       1    1dyz              5.000000      47.661487
                         63       1    1dz2              5.000000      27.517373

                         64       1    1dx2              2.000000       5.536202
                         64       1    1dxy              2.000000       9.588984
                         64       1    1dxz              2.000000       9.588984
                         64       1    1dy2              2.000000       5.536202
                         64       1    1dyz              2.000000       9.588984
                         64       1    1dz2              2.000000       5.536202

                         65       1    1dx2              1.000000       1.645923
                         65       1    1dxy              1.000000       2.850822
                         65       1    1dxz              1.000000       2.850822
                         65       1    1dy2              1.000000       1.645923
                         65       1    1dyz              1.000000       2.850822
                         65       1    1dz2              1.000000       1.645923

                         66       1    1dx2              0.500000       0.489336
                         66       1    1dxy              0.500000       0.847554
                         66       1    1dxz              0.500000       0.847554
                         66       1    1dy2              0.500000       0.489336
                         66       1    1dyz              0.500000       0.847554
                         66       1    1dz2              0.500000       0.489336

                         67       1    1dx2              0.200000       0.098449
                         67       1    1dxy              0.200000       0.170519
                         67       1    1dxz              0.200000       0.170519
                         67       1    1dy2              0.200000       0.098449
                         67       1    1dyz              0.200000       0.170519
                         67       1    1dz2              0.200000       0.098449

                         68       1    1dx2              0.100000       0.029269
                         68       1    1dxy              0.100000       0.050696
                         68       1    1dxz              0.100000       0.050696
                         68       1    1dy2              0.100000       0.029269
                         68       1    1dyz              0.100000       0.050696
                         68       1    1dz2              0.100000       0.029269

                         69       1    1dx2              0.050000       0.008702
                         69       1    1dxy              0.050000       0.015072
                         69       1    1dxz              0.050000       0.015072
                         69       1    1dy2              0.050000       0.008702
                         69       1    1dyz              0.050000       0.015072
                         69       1    1dz2              0.050000       0.008702

                         70       1    1fx3          20000.000000***************
                         70       1    1fx2y         20000.000000***************
                         70       1    1fx2z         20000.000000***************
                         70       1    1fxy2         20000.000000***************
                         70       1    1fxyz         20000.000000***************
                         70       1    1fxz2         20000.000000***************
                         70       1    1fy3          20000.000000***************
                         70       1    1fy2z         20000.000000***************
                         70       1    1fyz2         20000.000000***************
                         70       1    1fz3          20000.000000***************

                         71       1    1fx3          10000.000000***************
                         71       1    1fx2y         10000.000000***************
                         71       1    1fx2z         10000.000000***************
                         71       1    1fxy2         10000.000000***************
                         71       1    1fxyz         10000.000000***************
                         71       1    1fxz2         10000.000000***************
                         71       1    1fy3          10000.000000***************
                         71       1    1fy2z         10000.000000***************
                         71       1    1fyz2         10000.000000***************
                         71       1    1fz3          10000.000000***************

                         72       1    1fx3           5000.000000***************
                         72       1    1fx2y          5000.000000***************
                         72       1    1fx2z          5000.000000***************
                         72       1    1fxy2          5000.000000***************
                         72       1    1fxyz          5000.000000***************
                         72       1    1fxz2          5000.000000***************
                         72       1    1fy3           5000.000000***************
                         72       1    1fy2z          5000.000000***************
                         72       1    1fyz2          5000.000000***************
                         72       1    1fz3           5000.000000***************

                         73       1    1fx3           2000.00000039379657.984455
                         73       1    1fx2y          2000.00000088055592.183934
                         73       1    1fx2z          2000.00000088055592.183934
                         73       1    1fxy2          2000.00000088055592.183934
                         73       1    1fxyz          2000.000000***************
                         73       1    1fxz2          2000.00000088055592.183934
                         73       1    1fy3           2000.00000039379657.984455
                         73       1    1fy2z          2000.00000088055592.183934
                         73       1    1fyz2          2000.00000088055592.183934
                         73       1    1fz3           2000.00000039379657.984455

                         74       1    1fx3           1000.000000 8278553.308261
                         74       1    1fx2y          1000.00000018511407.952628
                         74       1    1fx2z          1000.00000018511407.952628
                         74       1    1fxy2          1000.00000018511407.952628
                         74       1    1fxyz          1000.00000032062699.093587
                         74       1    1fxz2          1000.00000018511407.952628
                         74       1    1fy3           1000.000000 8278553.308261
                         74       1    1fy2z          1000.00000018511407.952628
                         74       1    1fyz2          1000.00000018511407.952628
                         74       1    1fz3           1000.000000 8278553.308261

                         75       1    1fx3            500.000000 1740351.450101
                         75       1    1fx2y           500.000000 3891544.147166
                         75       1    1fx2z           500.000000 3891544.147166
                         75       1    1fxy2           500.000000 3891544.147166
                         75       1    1fxyz           500.000000 6740352.182789
                         75       1    1fxz2           500.000000 3891544.147166
                         75       1    1fy3            500.000000 1740351.450101
                         75       1    1fy2z           500.000000 3891544.147166
                         75       1    1fyz2           500.000000 3891544.147166
                         75       1    1fz3            500.000000 1740351.450101

                         76       1    1fx3            200.000000  221448.090565
                         76       1    1fx2y           200.000000  495172.983991
                         76       1    1fx2z           200.000000  495172.983991
                         76       1    1fxy2           200.000000  495172.983991
                         76       1    1fxyz           200.000000  857664.766809
                         76       1    1fxz2           200.000000  495172.983991
                         76       1    1fy3            200.000000  221448.090565
                         76       1    1fy2z           200.000000  495172.983991
                         76       1    1fyz2           200.000000  495172.983991
                         76       1    1fz3            200.000000  221448.090565

                         77       1    1fx3            100.000000   46553.726380
                         77       1    1fx2y           100.000000  104097.296792
                         77       1    1fx2z           100.000000  104097.296792
                         77       1    1fxy2           100.000000  104097.296792
                         77       1    1fxyz           100.000000  180301.806975
                         77       1    1fxz2           100.000000  104097.296792
                         77       1    1fy3            100.000000   46553.726380
                         77       1    1fy2z           100.000000  104097.296792
                         77       1    1fyz2           100.000000  104097.296792
                         77       1    1fz3            100.000000   46553.726380

                         78       1    1fx3             50.000000    9786.715407
                         78       1    1fx2y            50.000000   21883.760928
                         78       1    1fx2z            50.000000   21883.760928
                         78       1    1fxy2            50.000000   21883.760928
                         78       1    1fxyz            50.000000   37903.785787
                         78       1    1fxz2            50.000000   21883.760928
                         78       1    1fy3             50.000000    9786.715407
                         78       1    1fy2z            50.000000   21883.760928
                         78       1    1fyz2            50.000000   21883.760928
                         78       1    1fz3             50.000000    9786.715407

                         79       1    1fx3             20.000000    1245.294127
                         79       1    1fx2y            20.000000    2784.562320
                         79       1    1fx2z            20.000000    2784.562320
                         79       1    1fxy2            20.000000    2784.562320
                         79       1    1fxyz            20.000000    4823.003415
                         79       1    1fxz2            20.000000    2784.562320
                         79       1    1fy3             20.000000    1245.294127
                         79       1    1fy2z            20.000000    2784.562320
                         79       1    1fyz2            20.000000    2784.562320
                         79       1    1fz3             20.000000    1245.294127

                         80       1    1fx3             10.000000     261.790842
                         80       1    1fx2y            10.000000     585.382118
                         80       1    1fx2z            10.000000     585.382118
                         80       1    1fxy2            10.000000     585.382118
                         80       1    1fxyz            10.000000    1013.911571
                         80       1    1fxz2            10.000000     585.382118
                         80       1    1fy3             10.000000     261.790842
                         80       1    1fy2z            10.000000     585.382118
                         80       1    1fyz2            10.000000     585.382118
                         80       1    1fz3             10.000000     261.790842

                         81       1    1fx3              5.000000      55.034745
                         81       1    1fx2y             5.000000     123.061431
                         81       1    1fx2z             5.000000     123.061431
                         81       1    1fxy2             5.000000     123.061431
                         81       1    1fxyz             5.000000     213.148651
                         81       1    1fxz2             5.000000     123.061431
                         81       1    1fy3              5.000000      55.034745
                         81       1    1fy2z             5.000000     123.061431
                         81       1    1fyz2             5.000000     123.061431
                         81       1    1fz3              5.000000      55.034745

                         82       1    1fx3              2.000000       7.002803
                         82       1    1fx2y             2.000000      15.658745
                         82       1    1fx2z             2.000000      15.658745
                         82       1    1fxy2             2.000000      15.658745
                         82       1    1fxyz             2.000000      27.121741
                         82       1    1fxz2             2.000000      15.658745
                         82       1    1fy3              2.000000       7.002803
                         82       1    1fy2z             2.000000      15.658745
                         82       1    1fyz2             2.000000      15.658745
                         82       1    1fz3              2.000000       7.002803

                         83       1    1fx3              1.000000       1.472158
                         83       1    1fx2y             1.000000       3.291846
                         83       1    1fx2z             1.000000       3.291846
                         83       1    1fxy2             1.000000       3.291846
                         83       1    1fxyz             1.000000       5.701644
                         83       1    1fxz2             1.000000       3.291846
                         83       1    1fy3              1.000000       1.472158
                         83       1    1fy2z             1.000000       3.291846
                         83       1    1fyz2             1.000000       3.291846
                         83       1    1fz3              1.000000       1.472158

                         84       1    1fx3              0.500000       0.309483
                         84       1    1fx2y             0.500000       0.692025
                         84       1    1fx2z             0.500000       0.692025
                         84       1    1fxy2             0.500000       0.692025
                         84       1    1fxyz             0.500000       1.198623
                         84       1    1fxz2             0.500000       0.692025
                         84       1    1fy3              0.500000       0.309483
                         84       1    1fy2z             0.500000       0.692025
                         84       1    1fyz2             0.500000       0.692025
                         84       1    1fz3              0.500000       0.309483

                         85       1    1fx3              0.200000       0.039380
                         85       1    1fx2y             0.200000       0.088056
                         85       1    1fx2z             0.200000       0.088056
                         85       1    1fxy2             0.200000       0.088056
                         85       1    1fxyz             0.200000       0.152517
                         85       1    1fxz2             0.200000       0.088056
                         85       1    1fy3              0.200000       0.039380
                         85       1    1fy2z             0.200000       0.088056
                         85       1    1fyz2             0.200000       0.088056
                         85       1    1fz3              0.200000       0.039380

                         86       1    1fx3              0.100000       0.008279
                         86       1    1fx2y             0.100000       0.018511
                         86       1    1fx2z             0.100000       0.018511
                         86       1    1fxy2             0.100000       0.018511
                         86       1    1fxyz             0.100000       0.032063
                         86       1    1fxz2             0.100000       0.018511
                         86       1    1fy3              0.100000       0.008279
                         86       1    1fy2z             0.100000       0.018511
                         86       1    1fyz2             0.100000       0.018511
                         86       1    1fz3              0.100000       0.008279

                         87       1    1gx4          10000.000000***************
                         87       1    1gx3y         10000.000000***************
                         87       1    1gx3z         10000.000000***************
                         87       1    1gx2y2        10000.000000***************
                         87       1    1gx2yz        10000.000000***************
                         87       1    1gx2z2        10000.000000***************
                         87       1    1gxy3         10000.000000***************
                         87       1    1gxy2z        10000.000000***************
                         87       1    1gxyz2        10000.000000***************
                         87       1    1gxz3         10000.000000***************
                         87       1    1gy4          10000.000000***************
                         87       1    1gy3z         10000.000000***************
                         87       1    1gy2z2        10000.000000***************
                         87       1    1gyz3         10000.000000***************
                         87       1    1gz4          10000.000000***************

                         88       1    1gx4           5000.000000***************
                         88       1    1gx3y          5000.000000***************
                         88       1    1gx3z          5000.000000***************
                         88       1    1gx2y2         5000.000000***************
                         88       1    1gx2yz         5000.000000***************
                         88       1    1gx2z2         5000.000000***************
                         88       1    1gxy3          5000.000000***************
                         88       1    1gxy2z         5000.000000***************
                         88       1    1gxyz2         5000.000000***************
                         88       1    1gxz3          5000.000000***************
                         88       1    1gy4           5000.000000***************
                         88       1    1gy3z          5000.000000***************
                         88       1    1gy2z2         5000.000000***************
                         88       1    1gyz3          5000.000000***************
                         88       1    1gz4           5000.000000***************

                         89       1    1gx4           2000.000000***************
                         89       1    1gx3y          2000.000000***************
                         89       1    1gx3z          2000.000000***************
                         89       1    1gx2y2         2000.000000***************
                         89       1    1gx2yz         2000.000000***************
                         89       1    1gx2z2         2000.000000***************
                         89       1    1gxy3          2000.000000***************
                         89       1    1gxy2z         2000.000000***************
                         89       1    1gxyz2         2000.000000***************
                         89       1    1gxz3          2000.000000***************
                         89       1    1gy4           2000.000000***************
                         89       1    1gy3z          2000.000000***************
                         89       1    1gy2z2         2000.000000***************
                         89       1    1gyz3          2000.000000***************
                         89       1    1gz4           2000.000000***************

                         90       1    1gx4           1000.000000***************
                         90       1    1gx3y          1000.000000***************
                         90       1    1gx3z          1000.000000***************
                         90       1    1gx2y2         1000.000000***************
                         90       1    1gx2yz         1000.000000***************
                         90       1    1gx2z2         1000.000000***************
                         90       1    1gxy3          1000.000000***************
                         90       1    1gxy2z         1000.000000***************
                         90       1    1gxyz2         1000.000000***************
                         90       1    1gxz3          1000.000000***************
                         90       1    1gy4           1000.000000***************
                         90       1    1gy3z          1000.000000***************
                         90       1    1gy2z2         1000.000000***************
                         90       1    1gyz3          1000.000000***************
                         90       1    1gz4           1000.000000***************

                         91       1    1gx4            500.00000029417308.655515
                         91       1    1gx3y           500.00000077830882.943321
                         91       1    1gx3z           500.00000077830882.943321
                         91       1    1gx2y2          500.000000***************
                         91       1    1gx2yz          500.000000***************
                         91       1    1gx2z2          500.000000***************
                         91       1    1gxy3           500.00000077830882.943321
                         91       1    1gxy2z          500.000000***************
                         91       1    1gxyz2          500.000000***************
                         91       1    1gxz3           500.00000077830882.943321
                         91       1    1gy4            500.00000029417308.655515
                         91       1    1gy3z           500.00000077830882.943321
                         91       1    1gy2z2          500.000000***************
                         91       1    1gyz3           500.00000077830882.943321
                         91       1    1gz4            500.00000029417308.655515

                         92       1    1gx4            200.000000 2367379.668144
                         92       1    1gx3y           200.000000 6263497.860779
                         92       1    1gx3z           200.000000 6263497.860779
                         92       1    1gx2y2          200.000000 8086140.967934
                         92       1    1gx2yz          200.00000014005606.993626
                         92       1    1gx2z2          200.000000 8086140.967934
                         92       1    1gxy3           200.000000 6263497.860779
                         92       1    1gxy2z          200.00000014005606.993626
                         92       1    1gxyz2          200.00000014005606.993626
                         92       1    1gxz3           200.000000 6263497.860779
                         92       1    1gy4            200.000000 2367379.668144
                         92       1    1gy3z           200.000000 6263497.860779
                         92       1    1gy2z2          200.000000 8086140.967934
                         92       1    1gyz3           200.000000 6263497.860779
                         92       1    1gz4            200.000000 2367379.668144

                         93       1    1gx4            100.000000  351913.093159
                         93       1    1gx3y           100.000000  931074.527605
                         93       1    1gx3z           100.000000  931074.527605
                         93       1    1gx2y2          100.000000 1202012.046498
                         93       1    1gx2yz          100.000000 2081945.935844
                         93       1    1gx2z2          100.000000 1202012.046498
                         93       1    1gxy3           100.000000  931074.527605
                         93       1    1gxy2z          100.000000 2081945.935844
                         93       1    1gxyz2          100.000000 2081945.935844
                         93       1    1gxz3           100.000000  931074.527605
                         93       1    1gy4            100.000000  351913.093159
                         93       1    1gy3z           100.000000  931074.527605
                         93       1    1gy2z2          100.000000 1202012.046498
                         93       1    1gyz3           100.000000  931074.527605
                         93       1    1gz4            100.000000  351913.093159

                         94       1    1gx4             50.000000   52312.194281
                         94       1    1gx3y            50.000000  138405.056603
                         94       1    1gx3z            50.000000  138405.056603
                         94       1    1gx2y2           50.000000  178680.159752
                         94       1    1gx2yz           50.000000  309483.114995
                         94       1    1gx2z2           50.000000  178680.159752
                         94       1    1gxy3            50.000000  138405.056603
                         94       1    1gxy2z           50.000000  309483.114995
                         94       1    1gxyz2           50.000000  309483.114995
                         94       1    1gxz3            50.000000  138405.056603
                         94       1    1gy4             50.000000   52312.194281
                         94       1    1gy3z            50.000000  138405.056603
                         94       1    1gy2z2           50.000000  178680.159752
                         94       1    1gyz3            50.000000  138405.056603
                         94       1    1gz4             50.000000   52312.194281

                         95       1    1gx4             20.000000    4209.862520
                         95       1    1gx3y            20.000000   11138.249281
                         95       1    1gx3z            20.000000   11138.249281
                         95       1    1gx2y2           20.000000   14379.417990
                         95       1    1gx2yz           20.000000   24905.882542
                         95       1    1gx2z2           20.000000   14379.417990
                         95       1    1gxy3            20.000000   11138.249281
                         95       1    1gxy2z           20.000000   24905.882542
                         95       1    1gxyz2           20.000000   24905.882542
                         95       1    1gxz3            20.000000   11138.249281
                         95       1    1gy4             20.000000    4209.862520
                         95       1    1gy3z            20.000000   11138.249281
                         95       1    1gy2z2           20.000000   14379.417990
                         95       1    1gyz3            20.000000   11138.249281
                         95       1    1gz4             20.000000    4209.862520

                         96       1    1gx4             10.000000     625.799808
                         96       1    1gx3y            10.000000    1655.710662
                         96       1    1gx3z            10.000000    1655.710662
                         96       1    1gx2y2           10.000000    2137.513273
                         96       1    1gx2yz           10.000000    3702.281591
                         96       1    1gx2z2           10.000000    2137.513273
                         96       1    1gxy3            10.000000    1655.710662
                         96       1    1gxy2z           10.000000    3702.281591
                         96       1    1gxyz2           10.000000    3702.281591
                         96       1    1gxz3            10.000000    1655.710662
                         96       1    1gy4             10.000000     625.799808
                         96       1    1gy3z            10.000000    1655.710662
                         96       1    1gy2z2           10.000000    2137.513273
                         96       1    1gyz3            10.000000    1655.710662
                         96       1    1gz4             10.000000     625.799808

                         97       1    1gx4              5.000000      93.025698
                         97       1    1gx3y             5.000000     246.122862
                         97       1    1gx3z             5.000000     246.122862
                         97       1    1gx2y2            5.000000     317.743249
                         97       1    1gx2yz            5.000000     550.347451
                         97       1    1gx2z2            5.000000     317.743249
                         97       1    1gxy3             5.000000     246.122862
                         97       1    1gxy2z            5.000000     550.347451
                         97       1    1gxyz2            5.000000     550.347451
                         97       1    1gxz3             5.000000     246.122862
                         97       1    1gy4              5.000000      93.025698
                         97       1    1gy3z             5.000000     246.122862
                         97       1    1gy2z2            5.000000     317.743249
                         97       1    1gyz3             5.000000     246.122862
                         97       1    1gz4              5.000000      93.025698

                         98       1    1gx4              2.000000       7.486312
                         98       1    1gx3y             2.000000      19.806919
                         98       1    1gx3z             2.000000      19.806919
                         98       1    1gx2y2            2.000000      25.570623
                         98       1    1gx2yz            2.000000      44.289618
                         98       1    1gx2z2            2.000000      25.570623
                         98       1    1gxy3             2.000000      19.806919
                         98       1    1gxy2z            2.000000      44.289618
                         98       1    1gxyz2            2.000000      44.289618
                         98       1    1gxz3             2.000000      19.806919
                         98       1    1gy4              2.000000       7.486312
                         98       1    1gy3z             2.000000      19.806919
                         98       1    1gy2z2            2.000000      25.570623
                         98       1    1gyz3             2.000000      19.806919
                         98       1    1gz4              2.000000       7.486312

                         99       1    1gx4              1.000000       1.112847
                         99       1    1gx3y             1.000000       2.944316
                         99       1    1gx3z             1.000000       2.944316
                         99       1    1gx2y2            1.000000       3.801096
                         99       1    1gx2yz            1.000000       6.583691
                         99       1    1gx2z2            1.000000       3.801096
                         99       1    1gxy3             1.000000       2.944316
                         99       1    1gxy2z            1.000000       6.583691
                         99       1    1gxyz2            1.000000       6.583691
                         99       1    1gxz3             1.000000       2.944316
                         99       1    1gy4              1.000000       1.112847
                         99       1    1gy3z             1.000000       2.944316
                         99       1    1gy2z2            1.000000       3.801096
                         99       1    1gyz3             1.000000       2.944316
                         99       1    1gz4              1.000000       1.112847

                        100       1    1gx4              0.500000       0.165426
                        100       1    1gx3y             0.500000       0.437675
                        100       1    1gx3z             0.500000       0.437675
                        100       1    1gx2y2            0.500000       0.565036
                        100       1    1gx2yz            0.500000       0.978672
                        100       1    1gx2z2            0.500000       0.565036
                        100       1    1gxy3             0.500000       0.437675
                        100       1    1gxy2z            0.500000       0.978672
                        100       1    1gxyz2            0.500000       0.978672
                        100       1    1gxz3             0.500000       0.437675
                        100       1    1gy4              0.500000       0.165426
                        100       1    1gy3z             0.500000       0.437675
                        100       1    1gy2z2            0.500000       0.565036
                        100       1    1gyz3             0.500000       0.437675
                        100       1    1gz4              0.500000       0.165426

                        101       1    1gx4              0.200000       0.013313
                        101       1    1gx3y             0.200000       0.035222
                        101       1    1gx3z             0.200000       0.035222
                        101       1    1gx2y2            0.200000       0.045472
                        101       1    1gx2yz            0.200000       0.078759
                        101       1    1gx2z2            0.200000       0.045472
                        101       1    1gxy3             0.200000       0.035222
                        101       1    1gxy2z            0.200000       0.078759
                        101       1    1gxyz2            0.200000       0.078759
                        101       1    1gxz3             0.200000       0.035222
                        101       1    1gy4              0.200000       0.013313
                        101       1    1gy3z             0.200000       0.035222
                        101       1    1gy2z2            0.200000       0.045472
                        101       1    1gyz3             0.200000       0.035222
                        101       1    1gz4              0.200000       0.013313

                        102       1    1gx4              0.100000       0.001979
                        102       1    1gx3y             0.100000       0.005236
                        102       1    1gx3z             0.100000       0.005236
                        102       1    1gx2y2            0.100000       0.006759
[...]
  RPA_IM_TIME_INFO| Number of periodic images T for Chi_PQ^T(it):              1
  RPA_IM_TIME_INFO| Number of periodic images T for Chi_PQ^T(it):              1
  RPA_IM_TIME_INFO| Number of periodic images T for Chi_PQ^T(it):              1
  RPA_IM_TIME_INFO| Number of periodic images T for Chi_PQ^T(it):              1
  RPA_IM_TIME_INFO| Number of periodic images T for Chi_PQ^T(it):              1
  RPA_IM_TIME_INFO| Number of periodic images T for Chi_PQ^T(it):              1
  
  GW quasiparticle energies
  -------------------------
   
  The GW quasiparticle energies are calculated according to: 
  E_GW = E_SCF + Z * ( Sigc(E_SCF) + Sigx - vxc )
   
  The energy unit of the following table is eV.  Sigc_fit is a very conservative
  estimate of the statistical error of the fitting.
   
            MO      E_SCF       Sigc   Sigc_fit   Sigx-vxc          Z       E_GW
    18 ( occ )    -64.228      9.162      0.000    -19.579      1.000    -74.645
    19 ( occ )    -64.228      9.162      0.000    -19.579      1.000    -74.645
    20 ( occ )    -35.254      8.502      0.000    -12.201      1.000    -38.954
    21 ( occ )    -19.094      2.040      0.000     -6.834      1.000    -23.888
    22 ( occ )    -19.094      2.040      0.000     -6.834      1.000    -23.888
    23 ( occ )    -19.046      2.320      0.000     -6.975      1.000    -23.701
    24 ( occ )    -15.745      5.770      0.000     -7.955      1.000    -17.931
    25 ( occ )     -4.977      1.073      0.000     -3.909      1.000     -7.813
    26 ( occ )     -4.709      1.158      0.000     -4.011      1.000     -7.562
    27 ( occ )     -4.709      1.158      0.000     -4.011      1.000     -7.562
    28 ( vir )     -1.890     -0.620      0.000      2.222      1.000     -0.288
    29 ( vir )     -0.329     -0.333      0.000      1.423      1.000      0.761
    30 ( vir )     -0.329     -0.333      0.000      1.423      1.000      0.761
    31 ( vir )     -0.060     -0.459      0.000      1.815      1.000      1.296
    32 ( vir )      0.747     -0.237      0.000      0.963      1.000      1.473
    33 ( vir )      1.134     -0.264      0.000      1.250      1.000      2.119
    34 ( vir )      1.134     -0.264      0.000      1.250      1.000      2.119
    35 ( vir )      1.141     -0.703      0.000      3.082      1.000      3.519
    36 ( vir )      1.141     -0.703      0.000      3.082      1.000      3.520
    37 ( vir )      1.282     -0.417      0.000      1.816      1.000      2.681
   
  GW HOMO-LUMO gap (eV)                                                     7.27
  

  Total RI-RPA Time=                                                  562.382605
  RI-RPA energy  =                                             -1.11722832054850

  Total EXX Time=                                                      73.932576
  EXX energy  =                                              -122.29354631497787

 ENERGY| Total FORCE_EVAL ( QS ) energy (a.u.):            -3172.812891677645894


 -------------------------------------------------------------------------------
 -                                                                             -
 -                                DBCSR STATISTICS                             -
 -                                                                             -
 -------------------------------------------------------------------------------
 COUNTER                                    TOTAL       BLAS       SMM       ACC
 flops    56 x    75 x    56               470400     100.0%      0.0%      0.0%
 flops    56 x    75 x    75               630000     100.0%      0.0%      0.0%
 flops    75 x    75 x    56               630000     100.0%      0.0%      0.0%
 flops    75 x    75 x    75               843750     100.0%      0.0%      0.0%
 flops   131 x   131 x    56              1922032     100.0%      0.0%      0.0%
 flops    56 x    56 x    27              2201472     100.0%      0.0%      0.0%
 flops   131 x   131 x    75              2574150     100.0%      0.0%      0.0%
 flops    56 x    75 x    27              2948400     100.0%      0.0%      0.0%
 flops    75 x    75 x    27              3948750     100.0%      0.0%      0.0%
 flops    56 x  1960 x    56           2753658880     100.0%      0.0%      0.0%
 flops    56 x  1960 x    75           3687936000     100.0%      0.0%      0.0%
 flops    56 x  2625 x    56           3687936000     100.0%      0.0%      0.0%
 flops    75 x  1960 x    56           3819648000     100.0%      0.0%      0.0%
 flops    56 x  2625 x    75           4939200000     100.0%      0.0%      0.0%
 flops    75 x  1960 x    75           5115600000     100.0%      0.0%      0.0%
 flops    75 x  2625 x    56           5115600000     100.0%      0.0%      0.0%
 flops    75 x  2625 x    75           6851250000     100.0%      0.0%      0.0%
 flops    56 x  2016 x    56          11329339392     100.0%      0.0%      0.0%
 flops  1432 x   131 x    56          11765770240     100.0%      0.0%      0.0%
 flops    56 x  2016 x    75          15173222400     100.0%      0.0%      0.0%
 flops    56 x  2700 x    56          15173222400     100.0%      0.0%      0.0%
 flops    75 x  2016 x    56          15715123200     100.0%      0.0%      0.0%
 flops  1432 x   131 x    75          15757728000     100.0%      0.0%      0.0%
 flops    56 x  2700 x    75          20321280000     100.0%      0.0%      0.0%
 flops    75 x  2016 x    75          21047040000     100.0%      0.0%      0.0%
 flops    75 x  2700 x    56          21047040000     100.0%      0.0%      0.0%
 flops    75 x  2700 x    75          28188000000     100.0%      0.0%      0.0%
 flops   716 x   716 x   459          79063858944     100.0%      0.0%      0.0%
 flops   716 x   716 x   716          82221819904     100.0%      0.0%      0.0%
 flops   716 x   716 x   432         124021739520     100.0%      0.0%      0.0%
 flops  1432 x   131 x   716         150433776640     100.0%      0.0%      0.0%
 flops   716 x   716 x   442         304542271488     100.0%      0.0%      0.0%
 flops   716 x   716 x   416         477713367040     100.0%      0.0%      0.0%
 flops inhomo. stacks                           0       0.0%      0.0%      0.0%
 flops total                         1.429502E+12     100.0%      0.0%      0.0%
 flops max/rank                    288.705753E+09     100.0%      0.0%      0.0%
 matmuls inhomo. stacks                         0       0.0%      0.0%      0.0%
 matmuls total                              13197     100.0%      0.0%      0.0%
 number of processed stacks                 11433     100.0%      0.0%      0.0%
 average stack size                                     1.2       0.0       0.0
 marketing flops                     1.432244E+12
 -------------------------------------------------------------------------------
 # multiplications                            912
 max memory usage/rank               1.325105E+09
 # max total images/rank                        5
 # max 3D layers                                1
 # MPI messages exchanged                 1147080
 MPI messages size (bytes):
  total size                        53.158494E+09
  min size                           0.000000E+00
  max size                           8.202496E+06
  average size                      46.342445E+03
 MPI breakdown and total messages size (bytes):
             size <=      128             1126380                        0
       128 < size <=     8192                   0                        0
      8192 < size <=    32768                 156                  4414176
     32768 < size <=   131072                3408                233762688
    131072 < size <=  4194304               11760               8824327680
   4194304 < size <= 16777216                5376              44096618496
  16777216 < size                               0                        0
 -------------------------------------------------------------------------------

 *** WARNING in dbcsr_mm.F:278 :: Using a non-square number of MPI ranks ***
 *** might lead to poor performance. Used ranks: 40 Suggested: 36 81     ***

 -------------------------------------------------------------------------------
 -                                                                             -
 -                      DBCSR MESSAGE PASSING PERFORMANCE                      -
 -                                                                             -
 -------------------------------------------------------------------------------

 ROUTINE             CALLS      AVE VOLUME [Bytes]
 MP_Group               49
 MP_Bcast               34                     12.
 MP_Allreduce         5216                      8.
 MP_Alltoall          2962                 548733.
 MP_Wait             63600
 MP_ISend            61002                 104836.
 MP_IRecv            61002                     61.
 MP_Memory           97060
 -------------------------------------------------------------------------------


 MEMORY| Estimated peak process memory [MiB]                                1248

 -------------------------------------------------------------------------------
 ----                             MULTIGRID INFO                            ----
 -------------------------------------------------------------------------------
 count for grid        1:        1598058          cutoff [a.u.]          200.00
 count for grid        2:          89994          cutoff [a.u.]           66.67
 count for grid        3:          66850          cutoff [a.u.]           22.22
 count for grid        4:          33081          cutoff [a.u.]            7.41
 total gridlevel count  :        1787983

 -------------------------------------------------------------------------------
 -                                                                             -
 -                         MESSAGE PASSING PERFORMANCE                         -
 -                                                                             -
 -------------------------------------------------------------------------------

 ROUTINE             CALLS      AVE VOLUME [Bytes]
 MP_Group                5
 MP_Bcast              276                2496739.
 MP_Allreduce          622                 577245.
 MP_Sync                84
 MP_Alltoall           363                6168942.
 MP_ISendRecv         2340                  48171.
 MP_Wait              6942
 MP_comm_split          22
 MP_ISend             8632                 155477.
 MP_IRecv             7542                1360099.
 MP_Recv                 8                   3144.
 -------------------------------------------------------------------------------


 -------------------------------------------------------------------------------
 -                                                                             -
 -                           R E F E R E N C E S                               -
 -                                                                             -
 -------------------------------------------------------------------------------
 
 CP2K version 7.0 (Development Version), the CP2K developers group (2018).
 CP2K is freely available from https://www.cp2k.org/ .

 Schuett, Ole; Messmer, Peter; Hutter, Juerg; VandeVondele, Joost. 
 Electronic Structure Calculations on Graphics Processing Units, John Wiley & Sons, Ltd, 173-190 (2016). 
 GPU-Accelerated Sparse Matrix-Matrix Multiplication for Linear Scaling Density Functional Theory.
 https://dx.doi.org/10.1002/9781118670712.ch8


 Del Ben, M; Schuett, O; Wentz, T; Messmer, P; Hutter, J;
 VandeVondele, J. 
 COMPUTER PHYSICS COMMUNICATIONS, 187, 120-129 (2015). 
 Enabling simulation at the fifth rung of DFT: Large scale RPA
 calculations with excellent time to solution.
 https://dx.doi.org/10.1016/j.cpc.2014.10.021


 Borstnik, U; VandeVondele, J; Weber, V; Hutter, J. 
 PARALLEL COMPUTING, 40 (5-6), 47-58 (2014). 
 Sparse matrix multiplication: The distributed block-compressed sparse
 row library.
 https://dx.doi.org/10.1016/j.parco.2014.03.012


 Hutter, J; Iannuzzi, M; Schiffmann, F; VandeVondele, J. 
 WILEY INTERDISCIPLINARY REVIEWS-COMPUTATIONAL MOLECULAR SCIENCE, 4 (1), 15-25 (2014). 
 CP2K: atomistic simulations of condensed matter systems.
 https://dx.doi.org/10.1002/wcms.1159


 Del Ben, M; Hutter, J; VandeVondele, J. 
 JOURNAL OF CHEMICAL THEORY AND COMPUTATION, 9 (6), 2654-2671 (2013). 
 Electron Correlation in the Condensed Phase from a Resolution of
 Identity Approach Based on the Gaussian and Plane Waves Scheme.
 https://dx.doi.org/10.1021/ct4002202


 Del Ben, M; Hutter, J; VandeVondele, J. 
 JOURNAL OF CHEMICAL THEORY AND COMPUTATION, 8 (11), 4177-4188 (2012). 
 Second-Order Moller-Plesset Perturbation Theory in the Condensed Phase:
 An Efficient and Massively Parallel Gaussian and Plane Waves Approach.
 https://dx.doi.org/10.1021/ct300531w


 Guidon, M; Hutter, J; VandeVondele, J. 
 JOURNAL OF CHEMICAL THEORY AND COMPUTATION, 5 (11), 3010-3021 (2009). 
 Robust Periodic Hartree-Fock Exchange for Large-Scale Simulations Using
 Gaussian Basis Sets.
 https://dx.doi.org/10.1021/ct900494g


 Guidon, M; Schiffmann, F; Hutter, J; VandeVondele, J. 
 JOURNAL OF CHEMICAL PHYSICS, 128 (21), 214104 (2008). 
 Ab initio molecular dynamics using hybrid density functionals.
 https://dx.doi.org/10.1063/1.2931945


 Frigo, M; Johnson, SG. 
 PROCEEDINGS OF THE IEEE, 93 (2), 216-231 (2005). 
 The design and implementation of FFTW3.
 https://dx.doi.org/10.1109/JPROC.2004.840301


 Lippert, G; Hutter, J; Parrinello, M. 
 THEORETICAL CHEMISTRY ACCOUNTS, 103 (2), 124-140 (1999). 
 The Gaussian and augmented-plane-wave density functional method for ab
 initio molecular dynamics simulations.
 https://dx.doi.org/10.1007/s002140050523


 Krack, M; Parrinello, M. 
 PHYSICAL CHEMISTRY CHEMICAL PHYSICS, 2 (10), 2105-2112 (2000). 
 All-electron ab-initio molecular dynamics.
 https://dx.doi.org/10.1039/b001167n


 Martyna, GJ; Tuckerman, ME. 
 JOURNAL OF CHEMICAL PHYSICS, 110 (6), 2810-2821 (1999). 
 A reciprocal space based method for treating long range interactions in
 ab initio and force-field-based calculations in clusters.
 https://dx.doi.org/10.1063/1.477923


 Perdew, JP; Burke, K; Ernzerhof, M. 
 PHYSICAL REVIEW LETTERS, 77 (18), 3865-3868 (1996). 
 Generalized gradient approximation made simple.
 https://dx.doi.org/10.1103/PhysRevLett.77.3865


 -------------------------------------------------------------------------------
 -                                                                             -
 -                                T I M I N G                                  -
 -                                                                             -
 -------------------------------------------------------------------------------
 SUBROUTINE                       CALLS  ASD         SELF TIME        TOTAL TIME
                                MAXIMUM       AVERAGE  MAXIMUM  AVERAGE  MAXIMUM
 CP2K                                 1  1.0    0.027    0.041  723.602  723.604
 qs_energies                          1  2.0    0.000    0.001  721.617  721.625
 mp2_main                             1  3.0    0.000    0.003  637.678  637.692
 mp2_gpw_main                         1  4.0    0.001    0.002  562.375  562.383
 mp2_ri_gpw_compute_in                1  5.0    0.000    0.003  387.384  425.154
 compute_3c_overlap_int               1  6.0  123.580  142.786  372.794  410.548
 compute_3c_overlap_int_put_dbc   77364  7.0  247.802  277.494  247.802  277.494
 mp_comm_split_direct                 8  6.6   42.803  226.573   42.803  226.573
 create_dbcsr_matrices_im_time        1  5.0    0.002    0.003   37.780  223.206
 rpa_ri_compute_en                    1  5.0    0.000    0.000  137.206  137.211
 rpa_num_int                          1  6.0    0.001    0.003  137.201  137.209
 dbcsr_multiply_generic             912  9.9    0.080    0.108   75.939   97.973
 multiply_cannon                    912 10.9    0.207    0.273   60.871   93.554
 scf_env_do_scf                       1  3.0    0.000    0.000   82.363   82.364
 scf_env_do_scf_inner_loop           13  4.0    0.004    0.014   82.363   82.364
 GW_postprocessing                    1  7.0    0.000    0.001   79.213   79.214
 compute_self_energy_im_time_gw       1  8.0    0.004    0.005   79.210   79.213
 compute_vec_Sigma_x_minus_vxc_       1  4.0    0.000    0.000   73.923   73.933
 integrate_four_center                1  5.0    0.007    0.022   71.529   71.531
 mp_waitall_1                     66446 13.3   33.850   68.965   33.850   68.965
 multiply_cannon_metrocomm3       17423 11.9    0.029    0.045   26.935   67.565
 qs_ks_build_kohn_sham_matrix        14  6.9    0.006    0.021   58.697   58.746
 qs_ks_update_qs_env                 13  5.0    0.000    0.000   56.356   56.407
 rebuild_ks_matrix                   13  6.0    0.001    0.012   56.312   56.351
 multiply_cannon_multrec          17423 11.9   12.463   55.938   22.117   56.056
 multiply_cannon_metrocomm1       17423 11.9    0.014    0.028    5.654   54.919
 mp_sum_d                          1192  6.8   31.320   52.865   31.320   52.865
 compute_self_energy_im_time_gw     280  9.0    0.002    0.004   35.081   51.533
 dbcsr_trace_a_b_d                  588  9.9    0.008    0.196   19.848   40.837
 compute_self_energy_im_time_gw     280  9.0    0.001    0.001   19.692   40.647
 mp_sync                             84  8.7   30.276   36.989   30.276   36.989
 mp_sum_l                          4522 10.9   17.348   36.166   17.348   36.166
 compute_mat_P_omega                  1  7.0    0.000    0.001   29.972   29.973
 integrate_four_center_main           1  6.0    0.000    0.000    1.841   26.380
 integrate_four_center_bin          128  7.0    1.841   26.380    1.841   26.380
 compute_mat_P_omega_calc_P          14  8.0    0.000    0.002   21.713   24.494
 powell_optimize                3865791  7.0   20.264   24.057   20.264   24.057
 calc_screening_functions             1  6.0   10.034   11.627   20.285   23.861
 calc_pair_dist_radii                 1  6.0    8.741   10.293   18.753   22.410
 pw_transfer                        291  9.5    0.032    0.062   19.535   20.214
 fft_wrap_pw1pw2                    247 10.6    0.005    0.016   19.285   19.971
 prepare_gapw_den                    14  7.9    0.001    0.011   18.449   18.584
 fft_wrap_pw1pw2_200                162 11.7    0.875    1.032   17.602   18.145
 qs_scf_new_mos                      13  5.0    0.000    0.001   18.088   18.095
 integrate_four_center_load           1  6.0    0.000    0.000    6.083   17.387
 hfx_load_balance                     1  7.0    0.000    0.000    6.083   17.387
 fft3d_ps                           247 12.6    5.070    5.712   15.343   17.241
 hfx_load_balance_range               1  8.0    0.003    0.081    5.924   17.228
 compute_self_energy_im_time_gw     280  9.0    0.002    0.003    9.569   14.852
 dbcsr_mm_multrec_finalize          912 12.9    0.013    0.021    9.654   14.802
 compute_self_energy_im_time_gw     280  9.0    0.002    0.005   14.570   14.788
 dbcsr_mm_sched_finalize            912 13.9    9.531   14.655    9.531   14.655
 calculate_Lmin1                      1  6.0    0.000    0.000   14.572   14.572
 -------------------------------------------------------------------------------

 The number of warnings for this run is : 3
 
 -------------------------------------------------------------------------------
  **** **** ******  **  PROGRAM ENDED AT                 2019-05-31 17:45:21.565
 ***** ** ***  *** **   PROGRAM RAN ON                                    tcopt4
 **    ****   ******    PROGRAM RAN BY                                   wilhelm
 ***** **    ** ** **   PROGRAM PROCESS ID                                 85813
  **** **  *******  **  PROGRAM STOPPED IN /data/wilhelm/2_job_test/11_GW100/3_c
                                           alcs/60_BrK
