 DBCSR| CPU Multiplication driver                                           BLAS
 DBCSR| Multrec recursion limit                                              512
 DBCSR| Multiplication stack size                                           1000
 DBCSR| Maximum elements for images                                    UNLIMITED
 DBCSR| Multiplicative factor virtual images                                   1
 DBCSR| Use multiplication densification                                       T
 DBCSR| Multiplication size stacks                                             3
 DBCSR| Number of 3D layers                                               SINGLE
 DBCSR| Use MPI memory allocation                                              T
 DBCSR| Use RMA algorithm                                                      F
 DBCSR| Use Communication thread                                               T
 DBCSR| Communication thread load                                             87


  **** **** ******  **  PROGRAM STARTED AT               2019-05-30 20:25:04.721
 ***** ** ***  *** **   PROGRAM STARTED ON                                tcopt4
 **    ****   ******    PROGRAM STARTED BY                               wilhelm
 ***** **    ** ** **   PROGRAM PROCESS ID                                  4337
  **** **  *******  **  PROGRAM STARTED IN /data/wilhelm/2_job_test/11_GW100/3_c
                                           alcs/06_H2

 CP2K| version string:                    CP2K version 7.0 (Development Version)
 CP2K| source code revision number:                                  git:026fb12
 CP2K| cp2kflags: libint fftw3 libxc pexsi elpa=201705 parallel mpi3 scalapack q
 CP2K|            uip libderiv_max_am1=5 libint_max_am=6
 CP2K| is freely available from                            https://www.cp2k.org/
 CP2K| Program compiled at                         Sat May 11 13:15:02 CEST 2019
 CP2K| Program compiled on                                                tcopt4
 CP2K| Program compiled for                            local_valgrind_March_2019
 CP2K| Data directory path              /data/wilhelm/1_git_repository/cp2k/data
 CP2K| Input file name                                                    GW.inp

 GLOBAL| Force Environment number                                              1
 GLOBAL| Basis set file name                              BASIS_def2_QZVP_RI_ALL
 GLOBAL| Potential file name                                           POTENTIAL
 GLOBAL| MM Potential file name                                     MM_POTENTIAL
 GLOBAL| Coordinate file name                                          06_H2.xyz
 GLOBAL| Method name                                                        CP2K
 GLOBAL| Project name                                                   ALL_ELEC
 GLOBAL| Preferred FFT library                                             FFTW3
 GLOBAL| Preferred diagonalization lib.                                       SL
 GLOBAL| Run type                                                         ENERGY
 GLOBAL| All-to-all communication in single precision                          F
 GLOBAL| FFTs using library dependent lengths                                  F
 GLOBAL| Global print level                                               MEDIUM
 GLOBAL| MPI I/O enabled                                                       T
 GLOBAL| Total number of message passing processes                            24
 GLOBAL| Number of threads for this process                                    1
 GLOBAL| This output is from process                                           0
 GLOBAL| CPU model name :  Intel(R) Xeon(R) CPU E5-2697 v3 @ 2.60GHz

 MEMORY| system memory details [Kb]
 MEMORY|                        rank 0           min           max       average
 MEMORY| MemTotal            396954008     396954008     396954008     396954008
 MEMORY| MemFree             250683924     250683924     250683924     250683924
 MEMORY| Buffers                187948        187948        187948        187948
 MEMORY| Cached               12221984      12221984      12221984      12221984
 MEMORY| Slab                   500672        500672        500672        500672
 MEMORY| SReclaimable           358844        358844        358844        358844
 MEMORY| MemLikelyFree       263452700     263452700     263452700     263452700


 *** Fundamental physical constants (SI units) ***

 *** Literature: B. J. Mohr and B. N. Taylor,
 ***             CODATA recommended values of the fundamental physical
 ***             constants: 2006, Web Version 5.1
 ***             http://physics.nist.gov/constants

 Speed of light in vacuum [m/s]                             2.99792458000000E+08
 Magnetic constant or permeability of vacuum [N/A**2]       1.25663706143592E-06
 Electric constant or permittivity of vacuum [F/m]          8.85418781762039E-12
 Planck constant (h) [J*s]                                  6.62606896000000E-34
 Planck constant (h-bar) [J*s]                              1.05457162825177E-34
 Elementary charge [C]                                      1.60217648700000E-19
 Electron mass [kg]                                         9.10938215000000E-31
 Electron g factor [ ]                                     -2.00231930436220E+00
 Proton mass [kg]                                           1.67262163700000E-27
 Fine-structure constant                                    7.29735253760000E-03
 Rydberg constant [1/m]                                     1.09737315685270E+07
 Avogadro constant [1/mol]                                  6.02214179000000E+23
 Boltzmann constant [J/K]                                   1.38065040000000E-23
 Atomic mass unit [kg]                                      1.66053878200000E-27
 Bohr radius [m]                                            5.29177208590000E-11

 *** Conversion factors ***

 [u] -> [a.u.]                                              1.82288848426455E+03
 [Angstrom] -> [Bohr] = [a.u.]                              1.88972613288564E+00
 [a.u.] = [Bohr] -> [Angstrom]                              5.29177208590000E-01
 [a.u.] -> [s]                                              2.41888432650478E-17
 [a.u.] -> [fs]                                             2.41888432650478E-02
 [a.u.] -> [J]                                              4.35974393937059E-18
 [a.u.] -> [N]                                              8.23872205491840E-08
 [a.u.] -> [K]                                              3.15774647902944E+05
 [a.u.] -> [kJ/mol]                                         2.62549961709828E+03
 [a.u.] -> [kcal/mol]                                       6.27509468713739E+02
 [a.u.] -> [Pa]                                             2.94210107994716E+13
 [a.u.] -> [bar]                                            2.94210107994716E+08
 [a.u.] -> [atm]                                            2.90362800883016E+08
 [a.u.] -> [eV]                                             2.72113838565563E+01
 [a.u.] -> [Hz]                                             6.57968392072181E+15
 [a.u.] -> [1/cm] (wave numbers)                            2.19474631370540E+05
 [a.u./Bohr**2] -> [1/cm]                                   5.14048714338585E+03
 

 CELL_TOP| Volume [angstrom^3]:                                         4096.000
 CELL_TOP| Vector a [angstrom    16.000     0.000     0.000    |a| =      16.000
 CELL_TOP| Vector b [angstrom     0.000    16.000     0.000    |b| =      16.000
 CELL_TOP| Vector c [angstrom     0.000     0.000    16.000    |c| =      16.000
 CELL_TOP| Angle (b,c), alpha [degree]:                                   90.000
 CELL_TOP| Angle (a,c), beta  [degree]:                                   90.000
 CELL_TOP| Angle (a,b), gamma [degree]:                                   90.000
 CELL_TOP| Numerically orthorhombic:                                         YES

 GENERATE|  Preliminary Number of Bonds generated:                             0
 GENERATE|  Achieved consistency in connectivity generation.

 CELL| Volume [angstrom^3]:                                             4096.000
 CELL| Vector a [angstrom]:      16.000     0.000     0.000    |a| =      16.000
 CELL| Vector b [angstrom]:       0.000    16.000     0.000    |b| =      16.000
 CELL| Vector c [angstrom]:       0.000     0.000    16.000    |c| =      16.000
 CELL| Angle (b,c), alpha [degree]:                                       90.000
 CELL| Angle (a,c), beta  [degree]:                                       90.000
 CELL| Angle (a,b), gamma [degree]:                                       90.000
 CELL| Numerically orthorhombic:                                             YES

 CELL_REF| Volume [angstrom^3]:                                         4096.000
 CELL_REF| Vector a [angstrom    16.000     0.000     0.000    |a| =      16.000
 CELL_REF| Vector b [angstrom     0.000    16.000     0.000    |b| =      16.000
 CELL_REF| Vector c [angstrom     0.000     0.000    16.000    |c| =      16.000
 CELL_REF| Angle (b,c), alpha [degree]:                                   90.000
 CELL_REF| Angle (a,c), beta  [degree]:                                   90.000
 CELL_REF| Angle (a,b), gamma [degree]:                                   90.000
 CELL_REF| Numerically orthorhombic:                                         YES

 *******************************************************************************
 *******************************************************************************
 **                                                                           **
 **     #####                         ##              ##                      **
 **    ##   ##            ##          ##              ##                      **
 **   ##     ##                       ##            ######                    **
 **   ##     ##  ##   ##  ##   #####  ##  ##   ####   ##    #####    #####    **
 **   ##     ##  ##   ##  ##  ##      ## ##   ##      ##   ##   ##  ##   ##   **
 **   ##  ## ##  ##   ##  ##  ##      ####     ###    ##   ######   ######    **
 **    ##  ###   ##   ##  ##  ##      ## ##      ##   ##   ##       ##        **
 **     #######   #####   ##   #####  ##  ##  ####    ##    #####   ##        **
 **           ##                                                    ##        **
 **                                                                           **
 **                                                ... make the atoms dance   **
 **                                                                           **
 **            Copyright (C) by CP2K developers group (2000 - 2019)           **
 **                                                                           **
 *******************************************************************************

 DFT| Spin restricted Kohn-Sham (RKS) calculation                            RKS
 DFT| Multiplicity                                                             1
 DFT| Number of spin states                                                    1
 DFT| Charge                                                                   0
 DFT| Self-interaction correction (SIC)                                       NO
 DFT| Cutoffs: density                                              1.000000E-10
 DFT|          gradient                                             1.000000E-10
 DFT|          tau                                                  1.000000E-10
 DFT|          cutoff_smoothing_range                               0.000000E+00
 DFT| XC density smoothing                                                  NONE
 DFT| XC derivatives                                                          PW
 FUNCTIONAL| ROUTINE=NEW
 FUNCTIONAL| PBE:
 FUNCTIONAL| J.P.Perdew, K.Burke, M.Ernzerhof, Phys. Rev. Letter, vol. 77, n 18,
 FUNCTIONAL|  pp. 3865-3868, (1996){spin unpolarized}                           

 QS| Method:                                                                GAPW
 QS| Density plane wave grid type                        NON-SPHERICAL FULLSPACE
 QS| Number of grid levels:                                                    4
 QS| Density cutoff [a.u.]:                                                200.0
 QS| Multi grid cutoff [a.u.]: 1) grid level                               200.0
 QS|                           2) grid level                                66.7
 QS|                           3) grid level                                22.2
 QS|                           4) grid level                                 7.4
 QS| Grid level progression factor:                                          3.0
 QS| Relative density cutoff [a.u.]:                                        25.0
 QS| Consistent realspace mapping and integration 
 QS| Interaction thresholds: eps_pgf_orb:                                1.0E-05
 QS|                         eps_filter_matrix:                          0.0E+00
 QS|                         eps_core_charge:                            1.0E-12
 QS|                         eps_rho_gspace:                             1.0E-10
 QS|                         eps_rho_rspace:                             1.0E-10
 QS|                         eps_gvg_rspace:                             1.0E-05
 QS|                         eps_ppl:                                    1.0E-02
 QS|                         eps_ppnl:                                   1.0E-07
 QS| GAPW|                   eps_fit:                                    1.0E-04
 QS| GAPW|                   eps_iso:                                    1.0E-12
 QS| GAPW|                   eps_svd:                                    1.0E-08
 QS| GAPW|                   eps_cpc:                                    1.0E-10
 QS| GAPW|   atom-r-grid: quadrature:                 GC_LOG                        
 QS| GAPW|      atom-s-grid:  max l :                                          6
 QS| GAPW|      max_l_rho0 :                                                   2


 ATOMIC KIND INFORMATION

  1. Atomic kind: H                                     Number of atoms:       2

     Orbital Basis Set                                                 def2-QZVP

       Number of orbital shell sets:                                          10
       Number of orbital shells:                                              10
       Number of primitive Cartesian functions:                               13
       Number of Cartesian basis functions:                                   35
       Number of spherical basis functions:                                   30
       Norm type:                                                              2

       Normalised Cartesian orbitals:

                        Set   Shell   Orbital            Exponent    Coefficient

                          1       1    1s              190.691690       0.195396
                                                        28.605532       0.363661
                                                         6.509594       0.612837
                                                         1.841246       0.914889

                          2       1    1s                0.598537       0.484985

                          3       1    1s                0.213976       0.224225

                          4       1    1s                0.080316       0.107526

                          5       1    1px               2.292000       4.019836
                          5       1    1py               2.292000       4.019836
                          5       1    1pz               2.292000       4.019836

                          6       1    1px               0.838000       1.142865
                          6       1    1py               0.838000       1.142865
                          6       1    1pz               0.838000       1.142865

                          7       1    1px               0.292000       0.305963
                          7       1    1py               0.292000       0.305963
                          7       1    1pz               0.292000       0.305963

                          8       1    1dx2              2.062000       5.840024
                          8       1    1dxy              2.062000      10.115218
                          8       1    1dxz              2.062000      10.115218
                          8       1    1dy2              2.062000       5.840024
                          8       1    1dyz              2.062000      10.115218
                          8       1    1dz2              2.062000       5.840024

                          9       1    1dx2              0.662000       0.799670
                          9       1    1dxy              0.662000       1.385069
                          9       1    1dxz              0.662000       1.385069
                          9       1    1dy2              0.662000       0.799670
                          9       1    1dyz              0.662000       1.385069
                          9       1    1dz2              0.662000       0.799670

                         10       1    1fx3              1.397000       3.123535
                         10       1    1fx2y             1.397000       6.984436
                         10       1    1fx2z             1.397000       6.984436
                         10       1    1fxy2             1.397000       6.984436
                         10       1    1fxyz             1.397000      12.097399
                         10       1    1fxz2             1.397000       6.984436
                         10       1    1fy3              1.397000       3.123535
                         10       1    1fy2z             1.397000       6.984436
                         10       1    1fyz2             1.397000       6.984436
                         10       1    1fz3              1.397000       3.123535

     RI Auxiliary Basis Set                                                RI-5Z

       Number of orbital shell sets:                                          21
       Number of orbital shells:                                              21
       Number of primitive Cartesian functions:                               21
       Number of Cartesian basis functions:                                  126
       Number of spherical basis functions:                                   91
       Norm type:                                                              2

       Normalised Cartesian orbitals:

                        Set   Shell   Orbital            Exponent    Coefficient

                          1       1    1s               23.321500       7.563581

                          2       1    1s                4.922970       2.355486

                          3       1    1s                1.775100       1.096042

                          4       1    1s                0.994218       0.709613

                          5       1    1s                0.506054       0.427620

                          6       1    1s                0.236911       0.242019

                          7       1    1px               5.974580      13.314483
                          7       1    1py               5.974580      13.314483
                          7       1    1pz               5.974580      13.314483

                          8       1    1px               2.052170       3.501118
                          8       1    1py               2.052170       3.501118
                          8       1    1pz               2.052170       3.501118

                          9       1    1px               1.248660       1.881462
                          9       1    1py               1.248660       1.881462
                          9       1    1pz               1.248660       1.881462

                         10       1    1px               0.805545       1.087808
                         10       1    1py               0.805545       1.087808
                         10       1    1pz               0.805545       1.087808

                         11       1    1px               0.347892       0.380843
                         11       1    1py               0.347892       0.380843
                         11       1    1pz               0.347892       0.380843

                         12       1    1dx2              3.858160      17.481346
                         12       1    1dxy              3.858160      30.278579
                         12       1    1dxz              3.858160      30.278579
                         12       1    1dy2              3.858160      17.481346
                         12       1    1dyz              3.858160      30.278579
                         12       1    1dz2              3.858160      17.481346

                         13       1    1dx2              1.710630       4.211459
                         13       1    1dxy              1.710630       7.294461
                         13       1    1dxz              1.710630       7.294461
                         13       1    1dy2              1.710630       4.211459
                         13       1    1dyz              1.710630       7.294461
                         13       1    1dz2              1.710630       4.211459

                         14       1    1dx2              0.979237       1.586584
                         14       1    1dxy              0.979237       2.748044
                         14       1    1dxz              0.979237       2.748044
                         14       1    1dy2              0.979237       1.586584
                         14       1    1dyz              0.979237       2.748044
                         14       1    1dz2              0.979237       1.586584

                         15       1    1dx2              0.625366       0.723843
                         15       1    1dxy              0.625366       1.253733
                         15       1    1dxz              0.625366       1.253733
                         15       1    1dy2              0.625366       0.723843
                         15       1    1dyz              0.625366       1.253733
                         15       1    1dz2              0.625366       0.723843

                         16       1    1fx3              3.101510      18.792914
                         16       1    1fx2y             3.101510      42.022232
                         16       1    1fx2z             3.101510      42.022232
                         16       1    1fxy2             3.101510      42.022232
                         16       1    1fxyz             3.101510      72.784641
                         16       1    1fxz2             3.101510      42.022232
                         16       1    1fy3              3.101510      18.792914
                         16       1    1fy2z             3.101510      42.022232
                         16       1    1fyz2             3.101510      42.022232
                         16       1    1fz3              3.101510      18.792914

                         17       1    1fx3              1.198110       2.210915
                         17       1    1fx2y             1.198110       4.943756
                         17       1    1fx2z             1.198110       4.943756
                         17       1    1fxy2             1.198110       4.943756
                         17       1    1fxyz             1.198110       8.562836
                         17       1    1fxz2             1.198110       4.943756
                         17       1    1fy3              1.198110       2.210915
                         17       1    1fy2z             1.198110       4.943756
                         17       1    1fyz2             1.198110       4.943756
                         17       1    1fz3              1.198110       2.210915

                         18       1    1fx3              0.572873       0.420326
                         18       1    1fx2y             0.572873       0.939876
                         18       1    1fx2z             0.572873       0.939876
                         18       1    1fxy2             0.572873       0.939876
                         18       1    1fxyz             0.572873       1.627914
                         18       1    1fxz2             0.572873       0.939876
                         18       1    1fy3              0.572873       0.420326
                         18       1    1fy2z             0.572873       0.939876
                         18       1    1fyz2             0.572873       0.939876
                         18       1    1fz3              0.572873       0.420326

                         19       1    1gx4              2.987800      22.576266
                         19       1    1gx3y             2.987800      59.731185
                         19       1    1gx3z             2.987800      59.731185
                         19       1    1gx2y2            2.987800      77.112629
                         19       1    1gx2yz            2.987800     133.562991
                         19       1    1gx2z2            2.987800      77.112629
                         19       1    1gxy3             2.987800      59.731185
                         19       1    1gxy2z            2.987800     133.562991
                         19       1    1gxyz2            2.987800     133.562991
                         19       1    1gxz3             2.987800      59.731185
                         19       1    1gy4              2.987800      22.576266
                         19       1    1gy3z             2.987800      59.731185
                         19       1    1gy2z2            2.987800      77.112629
                         19       1    1gyz3             2.987800      59.731185
                         19       1    1gz4              2.987800      22.576266

                         20       1    1gx4              1.231920       1.974865
                         20       1    1gx3y             1.231920       5.225001
                         20       1    1gx3z             1.231920       5.225001
                         20       1    1gx2y2            1.231920       6.745447
                         20       1    1gx2yz            1.231920      11.683456
                         20       1    1gx2z2            1.231920       6.745447
                         20       1    1gxy3             1.231920       5.225001
                         20       1    1gxy2z            1.231920      11.683456
                         20       1    1gxyz2            1.231920      11.683456
                         20       1    1gxz3             1.231920       5.225001
                         20       1    1gy4              1.231920       1.974865
                         20       1    1gy3z             1.231920       5.225001
                         20       1    1gy2z2            1.231920       6.745447
                         20       1    1gyz3             1.231920       5.225001
                         20       1    1gz4              1.231920       1.974865

                         21       1    1hx5              3.247390      34.106027
                         21       1    1hx4y             3.247390     102.318080
                         21       1    1hx4z             3.247390     102.318080
                         21       1    1hx3y2            3.247390     156.293448
                         21       1    1hx3yz            3.247390     270.708193
                         21       1    1hx3z2            3.247390     156.293448
                         21       1    1hx2y3            3.247390     156.293448
                         21       1    1hx2y2z           3.247390     349.482775
                         21       1    1hx2yz2           3.247390     349.482775
                         21       1    1hx2z3            3.247390     156.293448
                         21       1    1hxy4             3.247390     102.318080
                         21       1    1hxy3z            3.247390     270.708193
                         21       1    1hxy2z2           3.247390     349.482775
                         21       1    1hxyz3            3.247390     270.708193
                         21       1    1hxz4             3.247390     102.318080
                         21       1    1hy5              3.247390      34.106027
                         21       1    1hy4z             3.247390     102.318080
                         21       1    1hy3z2            3.247390     156.293448
                         21       1    1hy2z3            3.247390     156.293448
                         21       1    1hyz4             3.247390     102.318080
                         21       1    1hz5              3.247390      34.106027

     The atoms of this atomic kind are PAW atoms (GAPW):
       Hard Gaussian function radius:                                      1.200
       Rho0 radius:                                                        1.200
       Maximum GTO radius used for PAW projector construction:            24.566

     GAPW Soft Basis Set                                          def2-QZVP_soft

       Number of orbital shell sets:                                          10
       Number of orbital shells:                                              10
       Number of primitive Cartesian functions:                               10
       Number of Cartesian basis functions:                                   35
       Number of spherical basis functions:                                   30
       Norm type:                                                              2

       Normalised Cartesian orbitals:

                        Set   Shell   Orbital            Exponent    Coefficient

                          1       1    1s                1.841246       0.914889

                          2       1    1s                0.598537       0.484985

                          3       1    1s                0.213976       0.224225

                          4       1    1s                0.080316       0.107526

                          5       1    1px               2.292000       4.019836
                          5       1    1py               2.292000       4.019836
                          5       1    1pz               2.292000       4.019836

                          6       1    1px               0.838000       1.142865
                          6       1    1py               0.838000       1.142865
                          6       1    1pz               0.838000       1.142865

                          7       1    1px               0.292000       0.305963
                          7       1    1py               0.292000       0.305963
                          7       1    1pz               0.292000       0.305963

                          8       1    1dx2              2.062000       5.840024
                          8       1    1dxy              2.062000      10.115218
                          8       1    1dxz              2.062000      10.115218
                          8       1    1dy2              2.062000       5.840024
                          8       1    1dyz              2.062000      10.115218
                          8       1    1dz2              2.062000       5.840024

                          9       1    1dx2              0.662000       0.799670
                          9       1    1dxy              0.662000       1.385069
                          9       1    1dxz              0.662000       1.385069
                          9       1    1dy2              0.662000       0.799670
                          9       1    1dyz              0.662000       1.385069
                          9       1    1dz2              0.662000       0.799670

                         10       1    1fx3              1.397000       3.123535
                         10       1    1fx2y             1.397000       6.984436
                         10       1    1fx2z             1.397000       6.984436
                         10       1    1fxy2             1.397000       6.984436
                         10       1    1fxyz             1.397000      12.097399
                         10       1    1fxz2             1.397000       6.984436
                         10       1    1fy3              1.397000       3.123535
                         10       1    1fy2z             1.397000       6.984436
                         10       1    1fyz2             1.397000       6.984436
                         10       1    1fz3              1.397000       3.123535

     AE Potential information for                                            ALL

       Description:                                       All-electron potential
                                          Krack, Parrinello, PCCP 2, 2105 (2000)

       Gaussian exponent of the core charge distribution:              12.500000
       Electronic configuration (s p d ...):                           1   0   0


 MOLECULE KIND INFORMATION


 All atoms are their own molecule, skipping detailed information


 TOTAL NUMBERS AND MAXIMUM NUMBERS

  Total number of            - Atomic kinds:                                   1
                             - Atoms:                                          2
                             - Shell sets:                                    20
                             - Shells:                                        20
                             - Primitive Cartesian functions:                 26
                             - Cartesian basis functions:                     70
                             - Spherical basis functions:                     60

  Maximum angular momentum of the orbital basis functions:                     3


 MODULE QUICKSTEP:  ATOMIC COORDINATES IN angstrom

  Atom  Kind  Element       X           Y           Z          Z(eff)       Mass

       1     1 H    1    8.000000    8.000000    7.629280      1.00       1.0079
       2     1 H    1    8.000000    8.000000    8.370720      1.00       1.0079




 SCF PARAMETERS         Density guess:                                   RESTART
                        --------------------------------------------------------
                        max_scf:                                             200
                        max_scf_history:                                       0
                        max_diis:                                              4
                        --------------------------------------------------------
                        eps_scf:                                        1.00E-06
                        eps_scf_history:                                0.00E+00
                        eps_diis:                                       1.00E-01
                        eps_eigval:                                     1.00E-05
                        --------------------------------------------------------
                        level_shift [a.u.]:                                 0.00
                        --------------------------------------------------------
                        Mixing method:                           DIRECT_P_MIXING
                        --------------------------------------------------------
                        No outer SCF

 PW_GRID| Information for grid number                                          1
 PW_GRID| Grid distributed over                                    24 processors
 PW_GRID| Real space group dimensions                                    24    1
 PW_GRID| the grid is blocked:                                                NO
 PW_GRID| Cutoff [a.u.]                                                    400.0
 PW_GRID| spherical cutoff:                                                   NO
 PW_GRID|   Bounds   1           -144     143                Points:         288
 PW_GRID|   Bounds   2           -144     143                Points:         288
 PW_GRID|   Bounds   3           -144     143                Points:         288
 PW_GRID| Volume element (a.u.^3)  0.1157E-02     Volume (a.u.^3)     27641.1785
 PW_GRID| Grid span                                                    FULLSPACE
 PW_GRID|   Distribution                         Average         Max         Min
 PW_GRID|   G-Vectors                           995328.0      995328      995328
 PW_GRID|   G-Rays                                3456.0        3456        3456
 PW_GRID|   Real Space Points                   995328.0      995328      995328

 PW_GRID| Information for grid number                                          2
 PW_GRID| Grid distributed over                                    24 processors
 PW_GRID| Real space group dimensions                                    24    1
 PW_GRID| the grid is blocked:                                                NO
 PW_GRID| Cutoff [a.u.]                                                    200.0
 PW_GRID| spherical cutoff:                                                   NO
 PW_GRID|   Bounds   1           -100      99                Points:         200
 PW_GRID|   Bounds   2           -100      99                Points:         200
 PW_GRID|   Bounds   3           -100      99                Points:         200
 PW_GRID| Volume element (a.u.^3)  0.3455E-02     Volume (a.u.^3)     27641.1785
 PW_GRID| Grid span                                                    FULLSPACE
 PW_GRID|   Distribution                         Average         Max         Min
 PW_GRID|   G-Vectors                           333333.3      333600      333200
 PW_GRID|   G-Rays                                1666.7        1668        1666
 PW_GRID|   Real Space Points                   333333.3      360000      320000

 PW_GRID| Information for grid number                                          3
 PW_GRID| Grid distributed over                                    24 processors
 PW_GRID| Real space group dimensions                                    24    1
 PW_GRID| the grid is blocked:                                                NO
 PW_GRID| Cutoff [a.u.]                                                     66.7
 PW_GRID| spherical cutoff:                                                   NO
 PW_GRID|   Bounds   1            -60      59                Points:         120
 PW_GRID|   Bounds   2            -60      59                Points:         120
 PW_GRID|   Bounds   3            -60      59                Points:         120
 PW_GRID| Volume element (a.u.^3)  0.1600E-01     Volume (a.u.^3)     27641.1785
 PW_GRID| Grid span                                                    FULLSPACE
 PW_GRID|   Distribution                         Average         Max         Min
 PW_GRID|   G-Vectors                            72000.0       72360       71760
 PW_GRID|   G-Rays                                 600.0         603         598
 PW_GRID|   Real Space Points                    72000.0       72000       72000

 PW_GRID| Information for grid number                                          4
 PW_GRID| Grid distributed over                                    24 processors
 PW_GRID| Real space group dimensions                                    24    1
 PW_GRID| the grid is blocked:                                                NO
 PW_GRID| Cutoff [a.u.]                                                     22.2
 PW_GRID| spherical cutoff:                                                   NO
 PW_GRID|   Bounds   1            -36      35                Points:          72
 PW_GRID|   Bounds   2            -36      35                Points:          72
 PW_GRID|   Bounds   3            -36      35                Points:          72
 PW_GRID| Volume element (a.u.^3)  0.7406E-01     Volume (a.u.^3)     27641.1785
 PW_GRID| Grid span                                                    FULLSPACE
 PW_GRID|   Distribution                         Average         Max         Min
 PW_GRID|   G-Vectors                            15552.0       15768       15408
 PW_GRID|   G-Rays                                 216.0         219         214
 PW_GRID|   Real Space Points                    15552.0       15552       15552

 PW_GRID| Information for grid number                                          5
 PW_GRID| Grid distributed over                                    24 processors
 PW_GRID| Real space group dimensions                                    24    1
 PW_GRID| the grid is blocked:                                                NO
 PW_GRID| Cutoff [a.u.]                                                      7.4
 PW_GRID| spherical cutoff:                                                   NO
 PW_GRID|   Bounds   1            -20      19                Points:          40
 PW_GRID|   Bounds   2            -20      19                Points:          40
 PW_GRID|   Bounds   3            -20      19                Points:          40
 PW_GRID| Volume element (a.u.^3)  0.4319         Volume (a.u.^3)     27641.1785
 PW_GRID| Grid span                                                    FULLSPACE
 PW_GRID|   Distribution                         Average         Max         Min
 PW_GRID|   G-Vectors                             2666.7        2720        2640
 PW_GRID|   G-Rays                                  66.7          68          66
 PW_GRID|   Real Space Points                     2666.7        3200        1600

 POISSON| Solver                                          Martyna-Tuckerman (MT)
 POISSON| MT| Alpha                                                        7.000
 POISSON| MT| Relative cutoff                                                2.0
 POISSON| Periodicity                                                       NONE

 RS_GRID| Information for grid number                                          2
 RS_GRID|   Bounds   1           -100      99                Points:         200
 RS_GRID|   Bounds   2           -100      99                Points:         200
 RS_GRID|   Bounds   3           -100      99                Points:         200
 RS_GRID| Real space distribution over                                  4 groups
 RS_GRID| Real space distribution along direction                              2
 RS_GRID| Border size                                                         24
 RS_GRID| Real space distribution over                                  6 groups
 RS_GRID| Real space distribution along direction                              3
 RS_GRID| Border size                                                         24
 RS_GRID|   Distribution                         Average         Max         Min
 RS_GRID|   Planes                                  98.0          98          98
 RS_GRID|   Distribution                         Average         Max         Min
 RS_GRID|   Planes                                  81.3          82          81

 RS_GRID| Information for grid number                                          3
 RS_GRID|   Bounds   1            -60      59                Points:         120
 RS_GRID|   Bounds   2            -60      59                Points:         120
 RS_GRID|   Bounds   3            -60      59                Points:         120
 RS_GRID| Real space distribution over                                  4 groups
 RS_GRID| Real space distribution along direction                              2
 RS_GRID| Border size                                                         24
 RS_GRID| Real space distribution over                                  6 groups
 RS_GRID| Real space distribution along direction                              3
 RS_GRID| Border size                                                         24
 RS_GRID|   Distribution                         Average         Max         Min
 RS_GRID|   Planes                                  78.0          78          78
 RS_GRID|   Distribution                         Average         Max         Min
 RS_GRID|   Planes                                  68.0          68          68

 RS_GRID| Information for grid number                                          4
 RS_GRID|   Bounds   1            -36      35                Points:          72
 RS_GRID|   Bounds   2            -36      35                Points:          72
 RS_GRID|   Bounds   3            -36      35                Points:          72
 RS_GRID| Real space fully replicated
 RS_GRID| Group size                                                           1

 RS_GRID| Information for grid number                                          5
 RS_GRID|   Bounds   1            -20      19                Points:          40
 RS_GRID|   Bounds   2            -20      19                Points:          40
 RS_GRID|   Bounds   3            -20      19                Points:          40
 RS_GRID| Real space fully replicated
 RS_GRID| Group size                                                           1
 
 RI-RPA| using GPW style
 

  HFX_INFO| Replica ID:                                                        1
  HFX_INFO| EPS_SCHWARZ:                                                 1.0E-17
  HFX_INFO| EPS_SCHWARZ_FORCES                                           1.0E-06
  HFX_INFO| EPS_STORAGE_SCALING:                                         1.0E+00
  HFX_INFO| NBINS:                                                            64
  HFX_INFO| BLOCK_SIZE:                                                        1
  HFX_INFO| FRACTION:                                               1.0000000000
  HFX_INFO| Interaction Potential:                                       COULOMB
  HFX_INFO| Number of periodic shells considered:                           NONE
  HFX_INFO| Number of periodic cells considered:                            NONE


 Number of electrons:                                                          2
 Number of occupied orbitals:                                                  1
 Number of molecular orbitals:                                                 1

 Number of orbital functions:                                                 60
 Number of independent orbital functions:                                     60

 Extrapolation method: initial_guess

 *** WARNING in qs_initial_guess.F:267 :: User requested to restart the   ***
 *** wavefunction from the file named: ALL_ELEC-RESTART.wfn. This file    ***
 *** does not exist. Please check the existence of the file or change     ***
 *** properly the value of the keyword WFN_RESTART_FILE_NAME. Calculation ***
 *** continues using ATOMIC GUESS.                                        ***


 Atomic guess: The first density matrix is obtained in terms of atomic orbitals
               and electronic configurations assigned to each atomic kind

 Guess for atomic kind: H

 Electronic structure
    Total number of core electrons                                          0.00
    Total number of valence electrons                                       1.00
    Total number of electrons                                               1.00
    Multiplicity                                                   not specified
    S      1.00


 *******************************************************************************
                  Iteration          Convergence                     Energy [au]
 *******************************************************************************
                          1        0.760354E-02                  -0.445327665654
                          2        0.114575E-02                  -0.445419349379
                          3        0.106073E-03                  -0.445421833009
                          4        0.362246E-06                  -0.445421852875

 Energy components [Hartree]           Total Energy ::           -0.445421852875
                                        Band Energy ::           -0.232522434546
                                     Kinetic Energy ::            0.425808986370
                                   Potential Energy ::           -0.871230839245
                                      Virial (-V/T) ::            2.046060245633
                                        Core Energy ::           -0.496086848305
                                          XC Energy ::           -0.232842933138
                                     Coulomb Energy ::            0.283507928568

 Orbital energies  State     L     Occupation   Energy[a.u.]          Energy[eV]

                       1     0          1.000      -0.232522           -6.327257


 Total Electron Density at R=0:                                         0.261242
 Re-scaling the density matrix to get the right number of electrons
                  # Electrons              Trace(P)               Scaling factor
                            2                 2.000                        1.000


 SCF WAVEFUNCTION OPTIMIZATION

  Step     Update method      Time    Convergence         Total energy    Change
  ------------------------------------------------------------------------------
     1 P_Mix/Diag. 0.40E+00    2.3     0.12830595        -0.9626925330 -9.63E-01
     2 P_Mix/Diag. 0.40E+00    2.5     0.07351327        -1.0504183393 -8.77E-02
     3 DIIS/Diag.  0.34E-01    2.3     0.03614432        -1.0983792963 -4.80E-02
     4 DIIS/Diag.  0.24E-01    2.2     0.00580277        -1.1664528749 -6.81E-02
     5 DIIS/Diag.  0.33E-01    2.2     0.01494485        -1.1662906999  1.62E-04
     6 P_Mix/Diag. 0.40E+00    4.0     0.01511054        -1.1634149669  2.88E-03
     7 DIIS/Diag.  0.14E-01    4.9     0.00513247        -1.1649212287 -1.51E-03
     8 DIIS/Diag.  0.29E-03    2.9     0.00008394        -1.1666391610 -1.72E-03
     9 DIIS/Diag.  0.45E-03    5.5     0.00012852        -1.1666391220  3.91E-08
    10 DIIS/Diag.  0.71E-03    3.5     0.00008728        -1.1666390299  9.21E-08
    11 DIIS/Diag.  0.80E-04    2.9     0.00000886        -1.1666391847 -1.55E-07
    12 DIIS/Diag.  0.21E-08    2.7     4.6524E-10        -1.1666391867 -2.00E-09

  *** SCF run converged in    12 steps ***


  Electronic density on regular grids:         -1.9382199902        0.0617800098
  Core density on regular grids:                2.0000000000       -0.0000000000
  Hard and soft densities (Lebedev):           -5.3235708327       -5.2617869732
  Total Rho_soft + Rho1_hard - Rho1_soft       -2.0000038497
  Total charge density (r-space):              -0.0000038497
  Total Rho_soft + Rho0_soft (g-space):        -0.0000038561

  Overlap energy of the core charge distribution:               0.00000051968942
  Self energy of the core charge distribution:                 -2.82094791773878
  Core Hamiltonian energy:                                      0.98137646288708
  Hartree energy:                                               1.07918617225470
  Exchange-correlation energy:                                 -0.64822397047178

  GAPW| Exc from hard and soft atomic rho1:                    -0.04241293862738
  GAPW| local Eh = 1 center integrals:                          0.28438248534973

  Total energy:                                                -1.16663918665702

 !-----------------------------------------------------------------------------!
                     Mulliken Population Analysis

 #  Atom  Element  Kind  Atomic population                           Net charge
       1     H        1          1.000000                             -0.000000
       2     H        1          1.000000                              0.000000
 # Total charge                              2.000000                 -0.000000

 !-----------------------------------------------------------------------------!

 !-----------------------------------------------------------------------------!
                           Hirshfeld Charges

  #Atom  Element  Kind  Ref Charge     Population                    Net charge
      1       H      1       1.000          0.905                         0.095
      2       H      1       1.000          0.905                         0.095

  Total Charge                                                            0.191
 !-----------------------------------------------------------------------------!


 RI-RPA section
 --------------

  Used number of processes per group:                                          1
  Maximum allowed memory usage per MPI processes:                     200.00 MiB

  HFX_MEM_INFO| Est. max. program size before HFX [MiB]:                     391
  HFX_MEM_INFO| Number of cart. primitive ERI's calculated:             12493488
  HFX_MEM_INFO| Number of sph. ERI's calculated:                         4860000
  HFX_MEM_INFO| Number of sph. ERI's stored in-core:                     4860000
  HFX_MEM_INFO| Number of sph. ERI's stored on disk:                           0
  HFX_MEM_INFO| Number of sph. ERI's calculated on the fly:                    0
  HFX_MEM_INFO| Total memory consumption ERI's RAM [MiB]:                     31
  HFX_MEM_INFO| Whereof max-vals [MiB]:                                        1
  HFX_MEM_INFO| Total compression factor ERI's RAM:                         1.23
  HFX_MEM_INFO| Total memory consumption ERI's disk [MiB]:                     0
  HFX_MEM_INFO| Total compression factor ERI's disk:                        0.00
  HFX_MEM_INFO| Size of density/Fock matrix [MiB]:                             0
  HFX_MEM_INFO| Size of buffers [MiB]:                                         0
  HFX_MEM_INFO| Est. max. program size after HFX  [MiB]:                     392

  GPW_INFO| Density cutoff [a.u.]:                                         150.0
  GPW_INFO| Relative density cutoff [a.u.]:                                 25.0
  RI_INFO| Cholesky decomposition group size:                                 24
  RI_INFO| Number of groups for auxiliary basis functions                     24
  RI_INFO| Occupied  basis set size:                                           1
  RI_INFO| Virtual   basis set size:                                          59
  RI_INFO| Auxiliary basis set size:                                         182
  RI_INFO| Total memory for (ia|K) integrals:                           0.08 MiB
  RI_INFO| Group size for frequency integration:                              24
  INTEG_INFO| MINIMAX quadrature
  INTEG_INFO| Number of integration points:                                   14
  INTEG_INFO| Number of integration points per RPA group:                     14
  MATRIX_INFO| Number row processes:                                           4
  MATRIX_INFO| Number column processes:                                        6
  MATRIX_INFO| Row block size:                                                 7
  MATRIX_INFO| Column block size:                                             15
 Emin =  0.41115363477730160      Emax =   12.753528637652055      Range =   31.018888218171565     
  INTEG_INFO| Range for the minimax approximation:                       31.0189
  INTEG_INFO| Minimax parameters:                    Weights           Abscissas
                                                1.2620734720        0.1564079381
                                                1.3949384555        0.4856528110
                                                1.6782008236        0.8663567812
                                                2.1490207371        1.3403154623
                                                2.8694610559        1.9615735159
                                                3.9368885880        2.8038150835
                                                5.5034078852        3.9713632722
                                                7.8143213620        5.6170910740
                                               11.2941839742        7.9749346021
                                               16.7705895552       11.4279740996
                                               26.1606993572       16.6782320528
                                               45.0642069308       25.2678934447
                                               96.4633872798       41.7093371920
                                              368.2983385512       88.5237335416
  INTEG_INFO| Range for the minimax approximation:                       31.0189
  INTEG_INFO| Gap:                                                        0.4112
  INTEG_INFO| Minimax parameters of the time grid:   Weights           Abscissas
                                                0.0131323920        0.0051015368
                                                0.0313922801        0.0272380174
                                                0.0518183150        0.0686012632
                                                0.0761216071        0.1321585688
                                                0.1067968669        0.2229559925
                                                0.1474571580        0.3490645451
                                                0.2031635113        0.5228659101
                                                0.2807930906        0.7626722407
                                                0.3897653413        1.0948552205
                                                0.5437315971        1.5571166037
                                                0.7645702608        2.2044223570
                                                1.0932327244        3.1216824191
                                                1.6282370072        4.4576502407
                                                2.7545995879        6.5591921722
 
 tau scaled:   1.2407860223421623E-002   6.6247784514176178E-002  0.16685067922831884       0.32143354123033197       0.54226929713991623       0.84898810468675745        1.2717044576385710        1.8549568243261567        2.6628859090689434        3.7871891964070188        5.3615538585302271        7.5924962229665152        10.841811584964322        15.953141641935551     
 
 
 omega scaled:   6.4307692244469486E-002  0.19967791849311195       0.35620573960444724       0.55107557407596153       0.80650808095408311        1.1527987628174847        1.6328404444033064        2.3094874119552031        3.2789233487714209        4.6986530892091318        6.8573157301588701        10.388986232973533        17.148945590644765        36.396854809671574     
 
 
 weights_cos_tf_t_to_w
   6.3950405202552033E-002   6.3683808242801787E-002   6.4174569117086966E-002   6.3524677839151611E-002   6.4270138025019088E-002   6.3476556431246792E-002   6.4290055308303076E-002   6.3469358402070006E-002   6.4293073251596222E-002   6.3465857340225765E-002   6.4318749971661524E-002   6.3326424736090473E-002   6.4930263286458151E-002   5.9522388106638464E-002  0.15245048448709483       0.15341809072660936       0.15163604378690965       0.15399810779283440       0.15128425941125770       0.15418154320888938       0.15119645721162628       0.15423619236714070       0.15112958740497975       0.15436792735094498       0.15073986339271495       0.15594203222203598       0.13847507009086757        9.8412788089278280E-002  0.25259295303595769       0.25056431712097182       0.25430575605722733       0.24933239328331741       0.25507661763220851       0.24888468095893940       0.25538036858828594       0.24853042387938432       0.25605082083020964       0.24684030733522708       0.26316730998041060       0.30215953714697824       0.22245501253976743        2.6256006372337239E-002  0.36935804221864987       0.37290455914501636       0.36634059136855091       0.37512955493879718       0.36483656860201097       0.37622910058809778       0.36363746249501683       0.37846773141858514       0.35700667882835280       0.49927395065566971       0.38990540412599034       0.34174323286130670       0.17820541336663820       -1.2560158069942909E-002  0.52098445932154336       0.51526779912306409       0.52593227825462541       0.51141262100523932       0.52898651461403845       0.50819298012998260       0.53486547589542754       0.48559335205327986       0.45895291387020648       0.54023989485153368       0.47966794667882107       0.37849272163745984        4.9032675262690624E-002   5.1437591916530549E-003  0.71499873733359642       0.72385793074084559       0.70705176618077592       0.73078465110368596       0.69975789016524848       0.74380426430816238       0.62841202547494079       0.66714912773580393       0.74443877058919872       0.65055507264628809       0.58563314982706705       0.16854854880100043       -4.4442347629480142E-002  -1.8824302648676470E-003  0.99169810650470336       0.97818399845788928        1.0047332727383791       0.96405664545892622        1.0293300148394458       0.75797517634568889       0.92980954226596813        1.0262663515069435       0.87001919983778409       0.83813490589052486       0.36812581504703873        6.6708422036830500E-002   8.3324142412245766E-003  -1.4579289158171554E-003   1.3607584457457791        1.3814866516908886        1.3375778189540775        1.4205110105430165       0.91082191394982526        1.2897632541853157        1.4200051881225060        1.1594738387198835        1.1750512563018460       0.62971814157274697       0.11400198459013300       -2.5066128242372743E-002   4.9250881290661599E-003   2.2067558645056811E-002   1.9036330887808068        1.8706524477984303        1.9545031410725968        1.4596357885382805        1.7913536574726150        1.9726378014083867        1.5565084381147878        1.6399798904473566       0.96869329666175807       0.19981067929817703       -5.7526814701604402E-002  -1.4881123974977173E-002   2.6427611712559244E-002  -5.3721009806447808E-004   2.6330864301361427        2.6910125424080431        2.3989580294035702        2.4917299047576966        2.7516542341933494        2.1427571665190612        2.2909502310358523        1.4187442438505933       0.32320978226008912      -0.17215786214699424        3.7577004755855285E-002  0.10474443407207985       -4.2014330057705603E-003  -4.0575858136901493E-004   3.7385726056305510        3.6051351061186909        3.4394990460526884        3.8653951568887783        3.0834078996548193        3.2157899537475871        2.0197162564226683       0.48883598461512806      -0.46053975052130275        4.4699215029686663E-002  -2.7229747985405530E-002   8.7236158333158266E-003   2.5743893674810064E-003   3.3158112835369926E-004   5.2812450926295282        7.1597030367325996        5.5256933314886707        4.6338283040495041        4.5644183242305383        2.8005117550348375       0.69559526606357414      -0.81141262240005063        7.4067159059332269E-002   6.5961436997883455E-002  -5.3128755234729333E-002   4.8977792017153143E-003  -8.3792860580642718E-003  -2.6780274681637988E-004   8.0142007121313039        8.3515331872006673        7.2162199811658860        6.6265535700805565        3.6971093814798368       0.91961994562717586      -0.70533069015407701       0.10903820345273971        8.6166135358822352E-002   2.7855628789076051E-002  -1.9702429909451473E-002   4.3978109307428468E-003   1.5017358451644915E-003   7.1460961339956037E-004   12.848081627694890        12.320170087168963        9.9134228048588717        4.1186224298592418        1.1481141738941987      -0.42381214782959553       0.25533430925861117      -0.11142363595818069       -8.0506055609516916E-002  -2.0301402407613967E-002  -1.0230281011291663E-002   5.0054508609696817E-003  -1.2188103984388876E-003   2.6204028754866869E-004
 
 weights_cos_tf_w_to_t
   4.1296808721709183E-002   4.1287105344466453E-002   4.1302681542882518E-002   4.1278993803629253E-002   4.1314390527240938E-002   4.1262463847782184E-002   4.1336619069746082E-002   4.1234273734084677E-002   4.1371184782239327E-002   4.1190324227787428E-002   4.1434711390849796E-002   4.1076520845461165E-002   4.1718747850189065E-002   3.9664193775528038E-002   4.5628795138191125E-002   4.5660274858505691E-002   4.5609710271440902E-002   4.5686735523963788E-002   4.5571206505936206E-002   4.5741994583201315E-002   4.5494321219020577E-002   4.5846749592564573E-002   4.5345224794973091E-002   4.6101084279678371E-002   4.4688413284314533E-002   5.8093043526063121E-002   4.7856894948111232E-002   4.2075670385637663E-002   5.4930746868776796E-002   5.4869832989248600E-002   5.4967820034492285E-002   5.4817973496416358E-002   5.5044722661207308E-002   5.4703214557667905E-002   5.5217869453439504E-002   5.4423383946819559E-002   5.5792704879260586E-002   5.1729168449822956E-002   5.1898113780615339E-002   5.6703416176637690E-002   5.0372354139149242E-002   4.0856319380584052E-002   7.0274169558432423E-002   7.0379409268990598E-002   7.0209651939293613E-002   7.0471205793926711E-002   7.0068438593164487E-002   7.0698725159043158E-002   6.9664576702024028E-002   7.1645927898265266E-002   6.0942749488662913E-002   6.7508854125329906E-002   7.2521609925604025E-002   6.2190774697392308E-002   5.9225120695932783E-002   2.1959991769826836E-002   9.3949340534782863E-002   9.3773245165091459E-002   9.4058713650090053E-002   9.3612693964540403E-002   9.4323225581889159E-002   9.3118765330292647E-002   9.5564539973946427E-002   7.6969167782406575E-002   9.0478920596203591E-002   9.6816387043952498E-002   7.9791308800353053E-002   8.1216736913769683E-002   4.4478000200445469E-002   8.4366198184352495E-003  0.12870138178524085       0.12899596533721469       0.12851407508268112       0.12928713068179951       0.12796817110516601       0.13067307843848222       0.11370424496754322       0.12430074079394039       0.13273734044007834       0.10763632492825384       0.11233690258573695        6.8858368970894368E-002   1.5603916335869480E-002  -4.6034794530498604E-003  0.18024721835705998       0.17974424910426517       0.18058101708238530       0.17916693552992446       0.18198259255727511       0.16961185348650432       0.17369736085596588       0.18530302576913496       0.15246297114501467       0.15739313541911243        9.9317637400916967E-002   2.4563258312517055E-002  -1.7969268818186827E-002   4.3843547658380536E-003  0.25534908776917586       0.25624422428233656       0.25470561586829521       0.25761119011908856       0.24826959791460990       0.24545860653407292       0.26270189982699510       0.22295195195615172       0.22329216745750960       0.13944229598839888        3.5119449138079385E-002  -4.3817927301522890E-002   4.4854592257198983E-003  -3.1845828673801690E-003  0.37013932020769191       0.36843163618729985       0.37156996343483739       0.36369465459967554       0.34531108588240467       0.37939499497365370       0.33230969973863050       0.32115698322012826       0.19231967434957317        4.7424519663948547E-002  -5.1934966609796830E-002   6.6639602148735044E-003   6.1192877298727813E-003  -4.0192499232559430E-003  0.54744501784689414       0.55109148186856693       0.54328864698671886       0.66123917348229766       0.56454562524724738       0.50522078394790104       0.47023742750762859       0.25833664939135476        6.1238260704434493E-002  -4.1346410361406877E-002   8.8309850744347843E-003   1.0835427272589279E-002   3.6681526847771552E-003  -1.8866020523359403E-003  0.85900106502003448       0.84959376198410486       0.88117004148962308       0.89141402732761987       0.79773719938588661       0.70576483310579607       0.32640127940291747        7.6519492793113125E-002  -3.0976917206611675E-002   1.7167317272736550E-002  -1.0729341307633908E-002  -1.7725837961024182E-002  -5.2974386937602062E-003  -1.9426233249762580E-003   1.4648678559459978        1.4994950449163709        1.7307445811844075        1.3677105422491531        1.0833579443922696       0.35532478589895367       0.10803925346649086       -3.3545030327844338E-002  -1.7529038052817726E-002  0.11034640464346133        8.0809311468212578E-003   3.8610649136808024E-003   2.7949955031664271E-003   2.2444877334254682E-003   3.2044656456474101        2.8744068407054169        2.7921543685262296        1.5293282390215310       0.30599669662965456      -0.21540761153141641        3.4374669590479856E-002   1.8592909314831808E-002   9.2798062119060248E-002  -1.3439641491536598E-002   7.2645060184854887E-003  -2.0097285167138518E-002   2.8975830183352929E-003  -1.6558053946103075E-003   11.232038005202861        7.7732408720039770        1.2621145870732007      -0.42082847140727003       0.13278103427669419       -4.1579411279218097E-002  -2.9992870582368662E-002  0.43577982293530854       -1.0010835966093477E-002  -6.8905635034595507E-003   4.9507878412580484E-003  -3.3868445561080836E-003   7.2501026440940702E-003   1.8677711042167132E-003
[...]
  INTEG_INFO| Maximum deviation of the imag. time fit:                  2.01E-06

 *** WARNING in rpa_gw.F:493 :: Pade approximation: more parameters than ***
 *** data points. Reset # of parameters.                                 ***

  Number of pade parameters:                                                   7
  MEMORY_INFO| Memory cut:                                                     1
  MEMORY_INFO| Im. time group size for RI functions:                           1
  MEMORY_INFO| Im. time group size for local P matrix:                         1
  SPARSITY_INFO| Eps pgf orb for imaginary time:                        1.00E-30
  SPARSITY_INFO| Eps filter for imaginary time:                         1.00E-30
  SPARSITY_INFO| Second eps filter for imaginary time:                  1.00E-30
  RPA_IM_TIME_INFO| Number of periodic images T for Chi_PQ^T(it):              1
  RPA_IM_TIME_INFO| Number of periodic images T for Chi_PQ^T(it):              1
  RPA_IM_TIME_INFO| Number of periodic images T for Chi_PQ^T(it):              1
  RPA_IM_TIME_INFO| Number of periodic images T for Chi_PQ^T(it):              1
  RPA_IM_TIME_INFO| Number of periodic images T for Chi_PQ^T(it):              1
  RPA_IM_TIME_INFO| Number of periodic images T for Chi_PQ^T(it):              1
  RPA_IM_TIME_INFO| Number of periodic images T for Chi_PQ^T(it):              1
  RPA_IM_TIME_INFO| Number of periodic images T for Chi_PQ^T(it):              1
  RPA_IM_TIME_INFO| Number of periodic images T for Chi_PQ^T(it):              1
  RPA_IM_TIME_INFO| Number of periodic images T for Chi_PQ^T(it):              1
  RPA_IM_TIME_INFO| Number of periodic images T for Chi_PQ^T(it):              1
  RPA_IM_TIME_INFO| Number of periodic images T for Chi_PQ^T(it):              1
  RPA_IM_TIME_INFO| Number of periodic images T for Chi_PQ^T(it):              1
  RPA_IM_TIME_INFO| Number of periodic images T for Chi_PQ^T(it):              1
  
  GW quasiparticle energies
  -------------------------
   
  The GW quasiparticle energies are calculated according to: 
  E_GW = E_SCF + Z * ( Sigc(E_SCF) + Sigx - vxc )
   
  The energy unit of the following table is eV.  Sigc_fit is a very conservative
  estimate of the statistical error of the fitting.
   
            MO      E_SCF       Sigc   Sigc_fit   Sigx-vxc          Z       E_GW
     1 ( occ )    -10.380      0.442      0.000     -5.807      1.000    -15.745
     2 ( vir )      0.808     -0.493      0.000      3.177      1.000      3.492
     3 ( vir )      2.789     -0.323      0.000      2.494      1.000      4.959
     4 ( vir )      7.900     -1.016      0.000      3.955      1.000     10.839
     5 ( vir )      9.000     -1.067      0.000      4.904      1.000     12.837
     6 ( vir )      9.000     -1.067      0.000      4.904      1.000     12.837
     7 ( vir )     17.151     -0.251      0.000      4.657      1.000     21.557
     8 ( vir )     17.645     -1.878      0.000      4.558      1.000     20.325
     9 ( vir )     17.645     -1.878      0.000      4.558      1.000     20.325
    10 ( vir )     22.938     -2.284      0.000      5.392      1.000     26.045
    11 ( vir )     23.237     -2.079      0.000      4.380      1.000     25.538
   
  GW HOMO-LUMO gap (eV)                                                    19.24
  

  Total RI-RPA Time=                                                    3.711383
  RI-RPA energy  =                                             -0.07882413417080

  Total EXX Time=                                                       2.375104
  EXX energy  =                                                -0.65670549970493

 ENERGY| Total FORCE_EVAL ( QS ) energy (a.u.):               -1.211531911300330


 -------------------------------------------------------------------------------
 -                                                                             -
 -                                DBCSR STATISTICS                             -
 -                                                                             -
 -------------------------------------------------------------------------------
 COUNTER                                    TOTAL       BLAS       SMM       ACC
 flops    30 x    30 x    30               216000     100.0%      0.0%      0.0%
 flops    60 x    60 x    30               432000     100.0%      0.0%      0.0%
 flops    91 x    91 x    91            168799904     100.0%      0.0%      0.0%
 flops   182 x    60 x    30            403603200     100.0%      0.0%      0.0%
 flops   182 x    60 x    91            612131520     100.0%      0.0%      0.0%
 flops    30 x   210 x    30            861840000     100.0%      0.0%      0.0%
 flops    30 x   240 x    30           1378944000     100.0%      0.0%      0.0%
 flops    91 x    91 x   150           3338899200     100.0%      0.0%      0.0%
 flops inhomo. stacks                       64800     100.0%      0.0%      0.0%
 flops total                         6.764931E+09     100.0%      0.0%      0.0%
 flops max/rank                      1.422864E+09     100.0%      0.0%      0.0%
 matmuls inhomo. stacks                        36     100.0%      0.0%      0.0%
 matmuls total                               7894     100.0%      0.0%      0.0%
 number of processed stacks                  2000     100.0%      0.0%      0.0%
 average stack size                                     3.9       0.0       0.0
 marketing flops                     6.803761E+09
 -------------------------------------------------------------------------------
 # multiplications                            533
 max memory usage/rank             426.430464E+06
 # max total images/rank                        3
 # max 3D layers                                1
 # MPI messages exchanged                  223440
 MPI messages size (bytes):
  total size                       435.692544E+06
  min size                           0.000000E+00
  max size                         132.496000E+03
  average size                       1.949931E+03
 MPI breakdown and total messages size (bytes):
             size <=      128              215696                        0
       128 < size <=     8192                 102                    89280
      8192 < size <=    32768                1874                 26985600
     32768 < size <=   131072                4004                174894720
    131072 < size <=  4194304                1764                233722944
   4194304 < size <= 16777216                   0                        0
  16777216 < size                               0                        0
 -------------------------------------------------------------------------------

 *** WARNING in dbcsr_mm.F:278 :: Using a non-square number of MPI ranks ***
 *** might lead to poor performance. Used ranks: 24 Suggested: 25 49     ***

 -------------------------------------------------------------------------------
 -                                                                             -
 -                      DBCSR MESSAGE PASSING PERFORMANCE                      -
 -                                                                             -
 -------------------------------------------------------------------------------

 ROUTINE             CALLS      AVE VOLUME [Bytes]
 MP_Group               47
 MP_Bcast                9                     12.
 MP_Allreduce         3017                      8.
 MP_Alltoall          2173                  16055.
 MP_Wait             28472
 MP_ISend            20752                   4765.
 MP_IRecv            20752                     62.
 MP_Memory           38262
 -------------------------------------------------------------------------------


 MEMORY| Estimated peak process memory [MiB]                                 407

 -------------------------------------------------------------------------------
 ----                             MULTIGRID INFO                            ----
 -------------------------------------------------------------------------------
 count for grid        1:          10380          cutoff [a.u.]          200.00
 count for grid        2:           6597          cutoff [a.u.]           66.67
 count for grid        3:           2154          cutoff [a.u.]           22.22
 count for grid        4:            681          cutoff [a.u.]            7.41
 total gridlevel count  :          19812

 -------------------------------------------------------------------------------
 -                                                                             -
 -                         MESSAGE PASSING PERFORMANCE                         -
 -                                                                             -
 -------------------------------------------------------------------------------

 ROUTINE             CALLS      AVE VOLUME [Bytes]
 MP_Group                5
 MP_Bcast              165                1647048.
 MP_Allreduce          594                  12790.
 MP_Sync                83
 MP_Alltoall           343                9777725.
 MP_ISendRecv         1288                  70458.
 MP_Wait              4064
 MP_comm_split          21
 MP_ISend             5080                 166608.
 MP_IRecv             4438                 206263.
 -------------------------------------------------------------------------------


 -------------------------------------------------------------------------------
 -                                                                             -
 -                           R E F E R E N C E S                               -
 -                                                                             -
 -------------------------------------------------------------------------------
 
 CP2K version 7.0 (Development Version), the CP2K developers group (2018).
 CP2K is freely available from https://www.cp2k.org/ .

 Schuett, Ole; Messmer, Peter; Hutter, Juerg; VandeVondele, Joost. 
 Electronic Structure Calculations on Graphics Processing Units, John Wiley & Sons, Ltd, 173-190 (2016). 
 GPU-Accelerated Sparse Matrix-Matrix Multiplication for Linear Scaling Density Functional Theory.
 https://dx.doi.org/10.1002/9781118670712.ch8


 Del Ben, M; Schuett, O; Wentz, T; Messmer, P; Hutter, J;
 VandeVondele, J. 
 COMPUTER PHYSICS COMMUNICATIONS, 187, 120-129 (2015). 
 Enabling simulation at the fifth rung of DFT: Large scale RPA
 calculations with excellent time to solution.
 https://dx.doi.org/10.1016/j.cpc.2014.10.021


 Borstnik, U; VandeVondele, J; Weber, V; Hutter, J. 
 PARALLEL COMPUTING, 40 (5-6), 47-58 (2014). 
 Sparse matrix multiplication: The distributed block-compressed sparse
 row library.
 https://dx.doi.org/10.1016/j.parco.2014.03.012


 Hutter, J; Iannuzzi, M; Schiffmann, F; VandeVondele, J. 
 WILEY INTERDISCIPLINARY REVIEWS-COMPUTATIONAL MOLECULAR SCIENCE, 4 (1), 15-25 (2014). 
 CP2K: atomistic simulations of condensed matter systems.
 https://dx.doi.org/10.1002/wcms.1159


 Del Ben, M; Hutter, J; VandeVondele, J. 
 JOURNAL OF CHEMICAL THEORY AND COMPUTATION, 9 (6), 2654-2671 (2013). 
 Electron Correlation in the Condensed Phase from a Resolution of
 Identity Approach Based on the Gaussian and Plane Waves Scheme.
 https://dx.doi.org/10.1021/ct4002202


 Del Ben, M; Hutter, J; VandeVondele, J. 
 JOURNAL OF CHEMICAL THEORY AND COMPUTATION, 8 (11), 4177-4188 (2012). 
 Second-Order Moller-Plesset Perturbation Theory in the Condensed Phase:
 An Efficient and Massively Parallel Gaussian and Plane Waves Approach.
 https://dx.doi.org/10.1021/ct300531w


 Guidon, M; Hutter, J; VandeVondele, J. 
 JOURNAL OF CHEMICAL THEORY AND COMPUTATION, 5 (11), 3010-3021 (2009). 
 Robust Periodic Hartree-Fock Exchange for Large-Scale Simulations Using
 Gaussian Basis Sets.
 https://dx.doi.org/10.1021/ct900494g


 Guidon, M; Schiffmann, F; Hutter, J; VandeVondele, J. 
 JOURNAL OF CHEMICAL PHYSICS, 128 (21), 214104 (2008). 
 Ab initio molecular dynamics using hybrid density functionals.
 https://dx.doi.org/10.1063/1.2931945


 Frigo, M; Johnson, SG. 
 PROCEEDINGS OF THE IEEE, 93 (2), 216-231 (2005). 
 The design and implementation of FFTW3.
 https://dx.doi.org/10.1109/JPROC.2004.840301


 Lippert, G; Hutter, J; Parrinello, M. 
 THEORETICAL CHEMISTRY ACCOUNTS, 103 (2), 124-140 (1999). 
 The Gaussian and augmented-plane-wave density functional method for ab
 initio molecular dynamics simulations.
 https://dx.doi.org/10.1007/s002140050523


 Krack, M; Parrinello, M. 
 PHYSICAL CHEMISTRY CHEMICAL PHYSICS, 2 (10), 2105-2112 (2000). 
 All-electron ab-initio molecular dynamics.
 https://dx.doi.org/10.1039/b001167n


 Martyna, GJ; Tuckerman, ME. 
 JOURNAL OF CHEMICAL PHYSICS, 110 (6), 2810-2821 (1999). 
 A reciprocal space based method for treating long range interactions in
 ab initio and force-field-based calculations in clusters.
 https://dx.doi.org/10.1063/1.477923


 Perdew, JP; Burke, K; Ernzerhof, M. 
 PHYSICAL REVIEW LETTERS, 77 (18), 3865-3868 (1996). 
 Generalized gradient approximation made simple.
 https://dx.doi.org/10.1103/PhysRevLett.77.3865


 -------------------------------------------------------------------------------
 -                                                                             -
 -                                T I M I N G                                  -
 -                                                                             -
 -------------------------------------------------------------------------------
 SUBROUTINE                       CALLS  ASD         SELF TIME        TOTAL TIME
                                MAXIMUM       AVERAGE  MAXIMUM  AVERAGE  MAXIMUM
 CP2K                                 1  1.0    0.030    0.047   46.747   46.749
 qs_energies                          1  2.0    0.000    0.003   45.754   45.754
 scf_env_do_scf                       1  3.0    0.000    0.000   38.422   38.422
 scf_env_do_scf_inner_loop           12  4.0    0.001    0.002   38.422   38.422
 qs_ks_build_kohn_sham_matrix        13  6.8    0.003    0.004   29.552   29.580
 qs_ks_update_qs_env                 12  5.0    0.000    0.000   28.226   28.251
 rebuild_ks_matrix                   12  6.0    0.000    0.000   28.172   28.199
 pw_transfer                        270  9.5    0.027    0.050   23.593   24.235
 fft_wrap_pw1pw2                    229 10.6    0.004    0.017   23.367   23.964
 fft_wrap_pw1pw2_200                150 11.7    0.930    1.257   20.829   21.533
 fft3d_ps                           229 12.6    5.561    6.970   19.328   20.112
 mp_alltoall_z22v                   229 14.6   11.892   14.530   11.892   14.530
 qs_vxc_create                       13  7.8    0.000    0.000   13.957   13.965
 xc_vxc_pw_create                    12  9.0    0.124    0.185   13.957   13.965
 yz_to_x                            115 13.2    0.776    0.981    7.507    8.482
 rs_pw_transfer                     132  9.4    0.003    0.005    7.468    7.946
 qs_rho_update_rho                   13  5.0    0.000    0.000    7.631    7.641
 calculate_rho_elec                  13  6.0    0.062    0.280    7.311    7.326
 x_to_yz                            114 14.1    1.091    1.525    6.252    7.138
 density_rs2pw                       13  7.0    0.001    0.010    6.762    6.897
 xc_rho_set_and_dset_create          12 10.0    0.077    0.114    5.863    6.729
 mp2_main                             1  3.0    0.000    0.000    6.342    6.345
 sum_up_and_integrate                13  7.8    0.038    0.059    5.121    5.297
 integrate_v_rspace                  13  8.8    0.029    0.200    5.084    5.265
 potential_pw2rs                     13  9.8    0.002    0.003    5.020    5.050
 mp_waitany                        2292 11.3    3.733    5.047    3.733    5.047
 prepare_gapw_den                    13  7.8    0.000    0.000    3.790    4.016
 put_rho0_on_grid                    13  8.8    0.022    0.033    3.597    3.822
 mp2_gpw_main                         1  4.0    0.000    0.000    3.711    3.711
 rpa_ri_compute_en                    1  5.0    0.000    0.000    3.531    3.531
 rpa_num_int                          1  6.0    0.001    0.002    3.530    3.530
 rs_pw_transfer_PW2RS_200            27 10.7    1.116    1.598    2.756    3.137
 rs_pw_transfer_RS2PW_200            27  9.9    1.071    1.560    2.760    3.051
 mp_sum_d                           923  5.6    2.072    3.038    2.072    3.038
 qs_scf_new_mos                      12  5.0    0.000    0.000    2.947    2.970
 integrate_vhg0_rspace               13  7.8    0.016    0.023    2.575    2.656
 pw_gather_p                        115 12.2    1.614    2.397    1.614    2.397
 compute_vec_Sigma_x_minus_vxc_       1  4.0    0.000    0.000    2.374    2.375
 mp_sum_dm                           84  7.7    1.786    2.268    1.786    2.268
 pw_scatter_p                       114 13.1    1.454    1.857    1.454    1.857
 fft_wrap_pw1pw2_70                  26 11.4    0.019    0.025    1.416    1.646
 dbcsr_multiply_generic             533  9.8    0.021    0.030    1.438    1.582
 eigensolver                         13  5.8    0.001    0.001    1.492    1.511
 mp_waitall_1                     30160 13.4    0.998    1.249    0.998    1.249
 cp_fm_syevd                         13  6.8    0.000    0.000    1.207    1.245
 pw_poisson_solve                    14  7.6    0.305    0.381    1.169    1.189
 GW_postprocessing                    1  7.0    0.000    0.000    1.168    1.168
 compute_self_energy_im_time_gw       1  8.0    0.001    0.002    1.168    1.168
 copy_dbcsr_to_fm                    41  6.9    0.001    0.001    1.109    1.145
 dbcsr_complete_redistribute        126  9.4    0.005    0.016    1.057    1.089
 xc_functional_eval                  36 10.9    0.000    0.000    0.458    1.057
 pbe_lda_eval                        36 11.9    0.458    1.056    0.458    1.056
 rs_grid_zero                       119  9.2    0.757    1.019    0.757    1.019
 integrate_four_center                1  5.0    0.002    0.003    0.991    0.991
 -------------------------------------------------------------------------------

 The number of warnings for this run is : 3
 
 -------------------------------------------------------------------------------
  **** **** ******  **  PROGRAM ENDED AT                 2019-05-30 20:25:51.684
 ***** ** ***  *** **   PROGRAM RAN ON                                    tcopt4
 **    ****   ******    PROGRAM RAN BY                                   wilhelm
 ***** **    ** ** **   PROGRAM PROCESS ID                                  4337
  **** **  *******  **  PROGRAM STOPPED IN /data/wilhelm/2_job_test/11_GW100/3_c
                                           alcs/06_H2
