 DBCSR| CPU Multiplication driver                                           BLAS
 DBCSR| Multrec recursion limit                                              512
 DBCSR| Multiplication stack size                                           1000
 DBCSR| Maximum elements for images                                    UNLIMITED
 DBCSR| Multiplicative factor virtual images                                   1
 DBCSR| Use multiplication densification                                       T
 DBCSR| Multiplication size stacks                                             3
 DBCSR| Number of 3D layers                                               SINGLE
 DBCSR| Use MPI memory allocation                                              T
 DBCSR| Use RMA algorithm                                                      F
 DBCSR| Use Communication thread                                               T
 DBCSR| Communication thread load                                             87


  **** **** ******  **  PROGRAM STARTED AT               2019-05-31 16:38:28.597
 ***** ** ***  *** **   PROGRAM STARTED ON                                tcopt4
 **    ****   ******    PROGRAM STARTED BY                               wilhelm
 ***** **    ** ** **   PROGRAM PROCESS ID                                 77581
  **** **  *******  **  PROGRAM STARTED IN /data/wilhelm/2_job_test/11_GW100/3_c
                                           alcs/13_N2

 CP2K| version string:                    CP2K version 7.0 (Development Version)
 CP2K| source code revision number:                                  git:026fb12
 CP2K| cp2kflags: libint fftw3 libxc pexsi elpa=201705 parallel mpi3 scalapack q
 CP2K|            uip libderiv_max_am1=5 libint_max_am=6
 CP2K| is freely available from                            https://www.cp2k.org/
 CP2K| Program compiled at                         Sat May 11 13:15:02 CEST 2019
 CP2K| Program compiled on                                                tcopt4
 CP2K| Program compiled for                            local_valgrind_March_2019
 CP2K| Data directory path              /data/wilhelm/1_git_repository/cp2k/data
 CP2K| Input file name                                                    GW.inp

 GLOBAL| Force Environment number                                              1
 GLOBAL| Basis set file name                              BASIS_def2_QZVP_RI_ALL
 GLOBAL| Potential file name                                           POTENTIAL
 GLOBAL| MM Potential file name                                     MM_POTENTIAL
 GLOBAL| Coordinate file name                                          13_N2.xyz
 GLOBAL| Method name                                                        CP2K
 GLOBAL| Project name                                                   ALL_ELEC
 GLOBAL| Preferred FFT library                                             FFTW3
 GLOBAL| Preferred diagonalization lib.                                       SL
 GLOBAL| Run type                                                         ENERGY
 GLOBAL| All-to-all communication in single precision                          F
 GLOBAL| FFTs using library dependent lengths                                  F
 GLOBAL| Global print level                                               MEDIUM
 GLOBAL| MPI I/O enabled                                                       T
 GLOBAL| Total number of message passing processes                            40
 GLOBAL| Number of threads for this process                                    1
 GLOBAL| This output is from process                                           0
 GLOBAL| CPU model name :  Intel(R) Xeon(R) CPU E5-2697 v3 @ 2.60GHz

 MEMORY| system memory details [Kb]
 MEMORY|                        rank 0           min           max       average
 MEMORY| MemTotal            396954008     396954008     396954008     396954008
 MEMORY| MemFree             376742756     376742756     376742756     376742756
 MEMORY| Buffers                333988        333988        333988        333988
 MEMORY| Cached               15977636      15977636      15977636      15977636
 MEMORY| Slab                   602568        602568        602568        602568
 MEMORY| SReclaimable           461640        461640        461640        461640
 MEMORY| MemLikelyFree       393516020     393516020     393516020     393516020


 *** Fundamental physical constants (SI units) ***

 *** Literature: B. J. Mohr and B. N. Taylor,
 ***             CODATA recommended values of the fundamental physical
 ***             constants: 2006, Web Version 5.1
 ***             http://physics.nist.gov/constants

 Speed of light in vacuum [m/s]                             2.99792458000000E+08
 Magnetic constant or permeability of vacuum [N/A**2]       1.25663706143592E-06
 Electric constant or permittivity of vacuum [F/m]          8.85418781762039E-12
 Planck constant (h) [J*s]                                  6.62606896000000E-34
 Planck constant (h-bar) [J*s]                              1.05457162825177E-34
 Elementary charge [C]                                      1.60217648700000E-19
 Electron mass [kg]                                         9.10938215000000E-31
 Electron g factor [ ]                                     -2.00231930436220E+00
 Proton mass [kg]                                           1.67262163700000E-27
 Fine-structure constant                                    7.29735253760000E-03
 Rydberg constant [1/m]                                     1.09737315685270E+07
 Avogadro constant [1/mol]                                  6.02214179000000E+23
 Boltzmann constant [J/K]                                   1.38065040000000E-23
 Atomic mass unit [kg]                                      1.66053878200000E-27
 Bohr radius [m]                                            5.29177208590000E-11

 *** Conversion factors ***

 [u] -> [a.u.]                                              1.82288848426455E+03
 [Angstrom] -> [Bohr] = [a.u.]                              1.88972613288564E+00
 [a.u.] = [Bohr] -> [Angstrom]                              5.29177208590000E-01
 [a.u.] -> [s]                                              2.41888432650478E-17
 [a.u.] -> [fs]                                             2.41888432650478E-02
 [a.u.] -> [J]                                              4.35974393937059E-18
 [a.u.] -> [N]                                              8.23872205491840E-08
 [a.u.] -> [K]                                              3.15774647902944E+05
 [a.u.] -> [kJ/mol]                                         2.62549961709828E+03
 [a.u.] -> [kcal/mol]                                       6.27509468713739E+02
 [a.u.] -> [Pa]                                             2.94210107994716E+13
 [a.u.] -> [bar]                                            2.94210107994716E+08
 [a.u.] -> [atm]                                            2.90362800883016E+08
 [a.u.] -> [eV]                                             2.72113838565563E+01
 [a.u.] -> [Hz]                                             6.57968392072181E+15
 [a.u.] -> [1/cm] (wave numbers)                            2.19474631370540E+05
 [a.u./Bohr**2] -> [1/cm]                                   5.14048714338585E+03
 

 CELL_TOP| Volume [angstrom^3]:                                         4096.000
 CELL_TOP| Vector a [angstrom    16.000     0.000     0.000    |a| =      16.000
 CELL_TOP| Vector b [angstrom     0.000    16.000     0.000    |b| =      16.000
 CELL_TOP| Vector c [angstrom     0.000     0.000    16.000    |c| =      16.000
 CELL_TOP| Angle (b,c), alpha [degree]:                                   90.000
 CELL_TOP| Angle (a,c), beta  [degree]:                                   90.000
 CELL_TOP| Angle (a,b), gamma [degree]:                                   90.000
 CELL_TOP| Numerically orthorhombic:                                         YES

 GENERATE|  Preliminary Number of Bonds generated:                             0
 GENERATE|  Achieved consistency in connectivity generation.

 CELL| Volume [angstrom^3]:                                             4096.000
 CELL| Vector a [angstrom]:      16.000     0.000     0.000    |a| =      16.000
 CELL| Vector b [angstrom]:       0.000    16.000     0.000    |b| =      16.000
 CELL| Vector c [angstrom]:       0.000     0.000    16.000    |c| =      16.000
 CELL| Angle (b,c), alpha [degree]:                                       90.000
 CELL| Angle (a,c), beta  [degree]:                                       90.000
 CELL| Angle (a,b), gamma [degree]:                                       90.000
 CELL| Numerically orthorhombic:                                             YES

 CELL_REF| Volume [angstrom^3]:                                         4096.000
 CELL_REF| Vector a [angstrom    16.000     0.000     0.000    |a| =      16.000
 CELL_REF| Vector b [angstrom     0.000    16.000     0.000    |b| =      16.000
 CELL_REF| Vector c [angstrom     0.000     0.000    16.000    |c| =      16.000
 CELL_REF| Angle (b,c), alpha [degree]:                                   90.000
 CELL_REF| Angle (a,c), beta  [degree]:                                   90.000
 CELL_REF| Angle (a,b), gamma [degree]:                                   90.000
 CELL_REF| Numerically orthorhombic:                                         YES

 *******************************************************************************
 *******************************************************************************
 **                                                                           **
 **     #####                         ##              ##                      **
 **    ##   ##            ##          ##              ##                      **
 **   ##     ##                       ##            ######                    **
 **   ##     ##  ##   ##  ##   #####  ##  ##   ####   ##    #####    #####    **
 **   ##     ##  ##   ##  ##  ##      ## ##   ##      ##   ##   ##  ##   ##   **
 **   ##  ## ##  ##   ##  ##  ##      ####     ###    ##   ######   ######    **
 **    ##  ###   ##   ##  ##  ##      ## ##      ##   ##   ##       ##        **
 **     #######   #####   ##   #####  ##  ##  ####    ##    #####   ##        **
 **           ##                                                    ##        **
 **                                                                           **
 **                                                ... make the atoms dance   **
 **                                                                           **
 **            Copyright (C) by CP2K developers group (2000 - 2019)           **
 **                                                                           **
 *******************************************************************************

 DFT| Spin restricted Kohn-Sham (RKS) calculation                            RKS
 DFT| Multiplicity                                                             1
 DFT| Number of spin states                                                    1
 DFT| Charge                                                                   0
 DFT| Self-interaction correction (SIC)                                       NO
 DFT| Cutoffs: density                                              1.000000E-10
 DFT|          gradient                                             1.000000E-10
 DFT|          tau                                                  1.000000E-10
 DFT|          cutoff_smoothing_range                               0.000000E+00
 DFT| XC density smoothing                                                  NONE
 DFT| XC derivatives                                                          PW
 FUNCTIONAL| ROUTINE=NEW
 FUNCTIONAL| PBE:
 FUNCTIONAL| J.P.Perdew, K.Burke, M.Ernzerhof, Phys. Rev. Letter, vol. 77, n 18,
 FUNCTIONAL|  pp. 3865-3868, (1996){spin unpolarized}                           

 QS| Method:                                                                GAPW
 QS| Density plane wave grid type                        NON-SPHERICAL FULLSPACE
 QS| Number of grid levels:                                                    4
 QS| Density cutoff [a.u.]:                                                200.0
 QS| Multi grid cutoff [a.u.]: 1) grid level                               200.0
 QS|                           2) grid level                                66.7
 QS|                           3) grid level                                22.2
 QS|                           4) grid level                                 7.4
 QS| Grid level progression factor:                                          3.0
 QS| Relative density cutoff [a.u.]:                                        25.0
 QS| Consistent realspace mapping and integration 
 QS| Interaction thresholds: eps_pgf_orb:                                1.0E-05
 QS|                         eps_filter_matrix:                          0.0E+00
 QS|                         eps_core_charge:                            1.0E-12
 QS|                         eps_rho_gspace:                             1.0E-10
 QS|                         eps_rho_rspace:                             1.0E-10
 QS|                         eps_gvg_rspace:                             1.0E-05
 QS|                         eps_ppl:                                    1.0E-02
 QS|                         eps_ppnl:                                   1.0E-07
 QS| GAPW|                   eps_fit:                                    1.0E-04
 QS| GAPW|                   eps_iso:                                    1.0E-12
 QS| GAPW|                   eps_svd:                                    1.0E-08
 QS| GAPW|                   eps_cpc:                                    1.0E-10
 QS| GAPW|   atom-r-grid: quadrature:                 GC_LOG                        
 QS| GAPW|      atom-s-grid:  max l :                                          8
 QS| GAPW|      max_l_rho0 :                                                   2


 ATOMIC KIND INFORMATION

  1. Atomic kind: N                                     Number of atoms:       2

     Orbital Basis Set                                                 def2-QZVP

       Number of orbital shell sets:                                          17
       Number of orbital shells:                                              17
       Number of primitive Cartesian functions:                               29
       Number of Cartesian basis functions:                                   72
       Number of spherical basis functions:                                   57
       Norm type:                                                              2

       Normalised Cartesian orbitals:

                        Set   Shell   Orbital            Exponent    Coefficient

                          1       1    1s            90726.889210       0.264461
                                                     13590.528801       0.494937
                                                      3092.988378       0.855170
                                                       875.998764       1.389874
                                                       285.744700       2.121698
                                                       103.119134       2.979703
                                                        40.128557       3.622800
                                                        16.528096       3.451840

                          2       1    1s               69.390961       1.621997
                                                        20.428201       6.338076

                          3       1    1s                7.129259       3.109520

                          4       1    1s                3.132430       1.678113

                          5       1    1s                0.987558       0.706044

                          6       1    1s                0.387657       0.350143

                          7       1    1s                0.149099       0.171008

                          8       1    1px             150.057427      -1.834160
                                                        35.491599      -2.406167
                                                        11.247864      -2.652970
                                                         4.090031      -2.482665
                                                         1.622057      -1.818128
                          8       1    1py             150.057427      -1.834160
                                                        35.491599      -2.406167
                                                        11.247864      -2.652970
                                                         4.090031      -2.482665
                                                         1.622057      -1.818128
                          8       1    1pz             150.057427      -1.834160
                                                        35.491599      -2.406167
                                                        11.247864      -2.652970
                                                         4.090031      -2.482665
                                                         1.622057      -1.818128

                          9       1    1px               0.664423       0.855058
                          9       1    1py               0.664423       0.855058
                          9       1    1pz               0.664423       0.855058

                         10       1    1px               0.270998       0.278706
                         10       1    1py               0.270998       0.278706
                         10       1    1pz               0.270998       0.278706

                         11       1    1px               0.106887       0.087116
                         11       1    1py               0.106887       0.087116
                         11       1    1pz               0.106887       0.087116

                         12       1    1dx2              2.837000      10.207357
                         12       1    1dxy              2.837000      17.679661
                         12       1    1dxz              2.837000      17.679661
                         12       1    1dy2              2.837000      10.207357
                         12       1    1dyz              2.837000      17.679661
                         12       1    1dz2              2.837000      10.207357

                         13       1    1dx2              0.968000       1.554860
                         13       1    1dxy              0.968000       2.693097
                         13       1    1dxz              0.968000       2.693097
                         13       1    1dy2              0.968000       1.554860
                         13       1    1dyz              0.968000       2.693097
                         13       1    1dz2              0.968000       1.554860

                         14       1    1dx2              0.335000       0.242794
                         14       1    1dxy              0.335000       0.420531
                         14       1    1dxz              0.335000       0.420531
                         14       1    1dy2              0.335000       0.242794
                         14       1    1dyz              0.335000       0.420531
                         14       1    1dz2              0.335000       0.242794

                         15       1    1fx3              2.027000       7.217310
                         15       1    1fx2y             2.027000      16.138397
                         15       1    1fx2z             2.027000      16.138397
                         15       1    1fxy2             2.027000      16.138397
                         15       1    1fxyz             2.027000      27.952523
                         15       1    1fxz2             2.027000      16.138397
                         15       1    1fy3              2.027000       7.217310
                         15       1    1fy2z             2.027000      16.138397
                         15       1    1fyz2             2.027000      16.138397
                         15       1    1fz3              2.027000       7.217310

                         16       1    1fx3              0.685000       0.628432
                         16       1    1fx2y             0.685000       1.405216
                         16       1    1fx2z             0.685000       1.405216
                         16       1    1fxy2             0.685000       1.405216
                         16       1    1fxyz             0.685000       2.433906
                         16       1    1fxz2             0.685000       1.405216
                         16       1    1fy3              0.685000       0.628432
                         16       1    1fy2z             0.685000       1.405216
                         16       1    1fyz2             0.685000       1.405216
                         16       1    1fz3              0.685000       0.628432

                         17       1    1gx4              1.427000       2.958703
                         17       1    1gx3y             1.427000       7.827992
                         17       1    1gx3z             1.427000       7.827992
                         17       1    1gx2y2            1.427000      10.105894
                         17       1    1gx2yz            1.427000      17.503922
                         17       1    1gx2z2            1.427000      10.105894
                         17       1    1gxy3             1.427000       7.827992
                         17       1    1gxy2z            1.427000      17.503922
                         17       1    1gxyz2            1.427000      17.503922
                         17       1    1gxz3             1.427000       7.827992
                         17       1    1gy4              1.427000       2.958703
                         17       1    1gy3z             1.427000       7.827992
                         17       1    1gy2z2            1.427000      10.105894
                         17       1    1gyz3             1.427000       7.827992
                         17       1    1gz4              1.427000       2.958703

     RI Auxiliary Basis Set                                                RI-5Z

       Number of orbital shell sets:                                          39
       Number of orbital shells:                                              39
       Number of primitive Cartesian functions:                               39
       Number of Cartesian basis functions:                                  287
       Number of spherical basis functions:                                  193
       Norm type:                                                              2

       Normalised Cartesian orbitals:

                        Set   Shell   Orbital            Exponent    Coefficient

                          1       1    1s              330.814000      55.283815

                          2       1    1s               72.692500      17.743010

                          3       1    1s               18.515300       6.361480

                          4       1    1s                8.569100       3.569534

                          5       1    1s                3.809660       1.943456

                          6       1    1s                2.248340       1.308599

                          7       1    1s                1.312410       0.873901

                          8       1    1s                0.758637       0.579343

                          9       1    1s                0.378879       0.344180

                         10       1    1s                0.175888       0.193570

                         11       1    1px              66.987000     273.167010
                         11       1    1py              66.987000     273.167010
                         11       1    1pz              66.987000     273.167010

                         12       1    1px              18.749800      55.614225
                         12       1    1py              18.749800      55.614225
                         12       1    1pz              18.749800      55.614225

                         13       1    1px               7.480640      17.634515
                         13       1    1py               7.480640      17.634515
                         13       1    1pz               7.480640      17.634515

                         14       1    1px               3.761240       7.466274
                         14       1    1py               3.761240       7.466274
                         14       1    1pz               3.761240       7.466274

                         15       1    1px               2.075610       3.551177
                         15       1    1py               2.075610       3.551177
                         15       1    1pz               2.075610       3.551177

                         16       1    1px               0.990652       1.408775
                         16       1    1py               0.990652       1.408775
                         16       1    1pz               0.990652       1.408775

                         17       1    1px               0.519429       0.628562
                         17       1    1py               0.519429       0.628562
                         17       1    1pz               0.519429       0.628562

                         18       1    1px               0.311991       0.332367
                         18       1    1py               0.311991       0.332367
                         18       1    1pz               0.311991       0.332367

                         19       1    1dx2             17.120900     237.181597
                         19       1    1dxy             17.120900     410.810577
                         19       1    1dxz             17.120900     410.810577
                         19       1    1dy2             17.120900     237.181597
                         19       1    1dyz             17.120900     410.810577
                         19       1    1dz2             17.120900     237.181597

                         20       1    1dx2              5.810520      35.791979
                         20       1    1dxy              5.810520      61.993525
                         20       1    1dxz              5.810520      61.993525
                         20       1    1dy2              5.810520      35.791979
                         20       1    1dyz              5.810520      61.993525
                         20       1    1dz2              5.810520      35.791979

                         21       1    1dx2              3.550630      15.116246
                         21       1    1dxy              3.550630      26.182105
                         21       1    1dxz              3.550630      26.182105
                         21       1    1dy2              3.550630      15.116246
                         21       1    1dyz              3.550630      26.182105
                         21       1    1dz2              3.550630      15.116246

                         22       1    1dx2              2.262180       6.868027
                         22       1    1dxy              2.262180      11.895771
                         22       1    1dxz              2.262180      11.895771
                         22       1    1dy2              2.262180       6.868027
                         22       1    1dyz              2.262180      11.895771
                         22       1    1dz2              2.262180       6.868027

                         23       1    1dx2              1.105370       1.961317
                         23       1    1dxy              1.105370       3.397101
                         23       1    1dxz              1.105370       3.397101
                         23       1    1dy2              1.105370       1.961317
                         23       1    1dyz              1.105370       3.397101
                         23       1    1dz2              1.105370       1.961317

                         24       1    1dx2              0.568580       0.612766
                         24       1    1dxy              0.568580       1.061342
                         24       1    1dxz              0.568580       1.061342
                         24       1    1dy2              0.568580       0.612766
                         24       1    1dyz              0.568580       1.061342
                         24       1    1dz2              0.568580       0.612766

                         25       1    1dx2              0.281938       0.179547
                         25       1    1dxy              0.281938       0.310985
                         25       1    1dxz              0.281938       0.310985
                         25       1    1dy2              0.281938       0.179547
                         25       1    1dyz              0.281938       0.310985
                         25       1    1dz2              0.281938       0.179547

                         26       1    1fx3             10.195600     273.453335
                         26       1    1fx2y            10.195600     611.460245
                         26       1    1fx2z            10.195600     611.460245
                         26       1    1fxy2            10.195600     611.460245
                         26       1    1fxyz            10.195600    1059.080212
                         26       1    1fxz2            10.195600     611.460245
                         26       1    1fy3             10.195600     273.453335
                         26       1    1fy2z            10.195600     611.460245
                         26       1    1fyz2            10.195600     611.460245
                         26       1    1fz3             10.195600     273.453335

                         27       1    1fx3              4.611490      45.877243
                         27       1    1fx2y             4.611490     102.584634
                         27       1    1fx2z             4.611490     102.584634
                         27       1    1fxy2             4.611490     102.584634
                         27       1    1fxyz             4.611490     177.681798
                         27       1    1fxz2             4.611490     102.584634
                         27       1    1fy3              4.611490      45.877243
                         27       1    1fy2z             4.611490     102.584634
                         27       1    1fyz2             4.611490     102.584634
                         27       1    1fz3              4.611490      45.877243

                         28       1    1fx3              2.818460      15.152391
                         28       1    1fx2y             2.818460      33.881776
                         28       1    1fx2z             2.818460      33.881776
                         28       1    1fxy2             2.818460      33.881776
                         28       1    1fxyz             2.818460      58.684958
                         28       1    1fxz2             2.818460      33.881776
                         28       1    1fy3              2.818460      15.152391
                         28       1    1fy2z             2.818460      33.881776
                         28       1    1fyz2             2.818460      33.881776
                         28       1    1fz3              2.818460      15.152391

                         29       1    1fx3              1.544330       3.913990
                         29       1    1fx2y             1.544330       8.751947
                         29       1    1fx2z             1.544330       8.751947
                         29       1    1fxy2             1.544330       8.751947
                         29       1    1fxyz             1.544330      15.158817
                         29       1    1fxz2             1.544330       8.751947
                         29       1    1fy3              1.544330       3.913990
                         29       1    1fy2z             1.544330       8.751947
                         29       1    1fyz2             1.544330       8.751947
                         29       1    1fz3              1.544330       3.913990

                         30       1    1fx3              0.895075       1.147197
                         30       1    1fx2y             0.895075       2.565211
                         30       1    1fx2z             0.895075       2.565211
                         30       1    1fxy2             0.895075       2.565211
                         30       1    1fxyz             0.895075       4.443076
                         30       1    1fxz2             0.895075       2.565211
                         30       1    1fy3              0.895075       1.147197
                         30       1    1fy2z             0.895075       2.565211
                         30       1    1fyz2             0.895075       2.565211
                         30       1    1fz3              0.895075       1.147197

                         31       1    1fx3              0.470440       0.269829
                         31       1    1fx2y             0.470440       0.603356
                         31       1    1fx2z             0.470440       0.603356
                         31       1    1fxy2             0.470440       0.603356
                         31       1    1fxyz             0.470440       1.045044
                         31       1    1fxz2             0.470440       0.603356
                         31       1    1fy3              0.470440       0.269829
                         31       1    1fy2z             0.470440       0.603356
                         31       1    1fyz2             0.470440       0.603356
                         31       1    1fz3              0.470440       0.269829

                         32       1    1gx4              5.478920     119.631780
                         32       1    1gx3y             5.478920     316.515938
                         32       1    1gx3z             5.478920     316.515938
                         32       1    1gx2y2            5.478920     408.620318
                         32       1    1gx2yz            5.478920     707.751152
                         32       1    1gx2z2            5.478920     408.620318
                         32       1    1gxy3             5.478920     316.515938
                         32       1    1gxy2z            5.478920     707.751152
                         32       1    1gxyz2            5.478920     707.751152
                         32       1    1gxz3             5.478920     316.515938
                         32       1    1gy4              5.478920     119.631780
                         32       1    1gy3z             5.478920     316.515938
                         32       1    1gy2z2            5.478920     408.620318
                         32       1    1gyz3             5.478920     316.515938
                         32       1    1gz4              5.478920     119.631780

                         33       1    1gx4              3.053470      23.967238
                         33       1    1gx3y             3.053470      63.411351
                         33       1    1gx3z             3.053470      63.411351
                         33       1    1gx2y2            3.053470      81.863702
                         33       1    1gx2yz            3.053470     141.792090
                         33       1    1gx2z2            3.053470      81.863702
                         33       1    1gxy3             3.053470      63.411351
                         33       1    1gxy2z            3.053470     141.792090
                         33       1    1gxyz2            3.053470     141.792090
                         33       1    1gxz3             3.053470      63.411351
                         33       1    1gy4              3.053470      23.967238
                         33       1    1gy3z             3.053470      63.411351
                         33       1    1gy2z2            3.053470      81.863702
                         33       1    1gyz3             3.053470      63.411351
                         33       1    1gz4              3.053470      23.967238

                         34       1    1gx4              1.482770       3.287671
                         34       1    1gx3y             1.482770       8.698360
                         34       1    1gx3z             1.482770       8.698360
                         34       1    1gx2y2            1.482770      11.229534
                         34       1    1gx2yz            1.482770      19.450124
                         34       1    1gx2z2            1.482770      11.229534
                         34       1    1gxy3             1.482770       8.698360
                         34       1    1gxy2z            1.482770      19.450124
                         34       1    1gxyz2            1.482770      19.450124
                         34       1    1gxz3             1.482770       8.698360
                         34       1    1gy4              1.482770       3.287671
                         34       1    1gy3z             1.482770       8.698360
                         34       1    1gy2z2            1.482770      11.229534
                         34       1    1gyz3             1.482770       8.698360
                         34       1    1gz4              1.482770       3.287671

                         35       1    1gx4              0.844875       0.700027
                         35       1    1gx3y             0.844875       1.852097
                         35       1    1gx3z             0.844875       1.852097
                         35       1    1gx2y2            0.844875       2.391047
                         35       1    1gx2yz            0.844875       4.141415
                         35       1    1gx2z2            0.844875       2.391047
                         35       1    1gxy3             0.844875       1.852097
                         35       1    1gxy2z            0.844875       4.141415
                         35       1    1gxyz2            0.844875       4.141415
                         35       1    1gxz3             0.844875       1.852097
                         35       1    1gy4              0.844875       0.700027
                         35       1    1gy3z             0.844875       1.852097
                         35       1    1gy2z2            0.844875       2.391047
                         35       1    1gyz3             0.844875       1.852097
                         35       1    1gz4              0.844875       0.700027

                         36       1    1hx5              3.904570      62.080772
                         36       1    1hx4y             3.904570     186.242316
                         36       1    1hx4z             3.904570     186.242316
                         36       1    1hx3y2            3.904570     284.489837
                         36       1    1hx3yz            3.904570     492.750852
                         36       1    1hx3z2            3.904570     284.489837
                         36       1    1hx2y3            3.904570     284.489837
                         36       1    1hx2y2z           3.904570     636.138614
                         36       1    1hx2yz2           3.904570     636.138614
                         36       1    1hx2z3            3.904570     284.489837
                         36       1    1hxy4             3.904570     186.242316
                         36       1    1hxy3z            3.904570     492.750852
                         36       1    1hxy2z2           3.904570     636.138614
                         36       1    1hxyz3            3.904570     492.750852
                         36       1    1hxz4             3.904570     186.242316
                         36       1    1hy5              3.904570      62.080772
                         36       1    1hy4z             3.904570     186.242316
                         36       1    1hy3z2            3.904570     284.489837
                         36       1    1hy2z3            3.904570     284.489837
                         36       1    1hyz4             3.904570     186.242316
                         36       1    1hz5              3.904570      62.080772

                         37       1    1hx5              2.294020      11.022626
                         37       1    1hx4y             2.294020      33.067878
                         37       1    1hx4z             2.294020      33.067878
                         37       1    1hx3y2            2.294020      50.512017
                         37       1    1hx3yz            2.294020      87.489380
                         37       1    1hx3z2            2.294020      50.512017
                         37       1    1hx2y3            2.294020      50.512017
                         37       1    1hx2y2z           2.294020     112.948304
                         37       1    1hx2yz2           2.294020     112.948304
                         37       1    1hx2z3            2.294020      50.512017
                         37       1    1hxy4             2.294020      33.067878
                         37       1    1hxy3z            2.294020      87.489380
                         37       1    1hxy2z2           2.294020     112.948304
                         37       1    1hxyz3            2.294020      87.489380
                         37       1    1hxz4             2.294020      33.067878
                         37       1    1hy5              2.294020      11.022626
                         37       1    1hy4z             2.294020      33.067878
                         37       1    1hy3z2            2.294020      50.512017
                         37       1    1hy2z3            2.294020      50.512017
                         37       1    1hyz4             2.294020      33.067878
                         37       1    1hz5              2.294020      11.022626

                         38       1    1hx5              1.319300       1.825832
                         38       1    1hx4y             1.319300       5.477495
                         38       1    1hx4z             1.319300       5.477495
                         38       1    1hx3y2            1.319300       8.367012
                         38       1    1hx3yz            1.319300      14.492090
                         38       1    1hx3z2            1.319300       8.367012
                         38       1    1hx2y3            1.319300       8.367012
                         38       1    1hx2y2z           1.319300      18.709208
                         38       1    1hx2yz2           1.319300      18.709208
                         38       1    1hx2z3            1.319300       8.367012
                         38       1    1hxy4             1.319300       5.477495
                         38       1    1hxy3z            1.319300      14.492090
                         38       1    1hxy2z2           1.319300      18.709208
                         38       1    1hxyz3            1.319300      14.492090
                         38       1    1hxz4             1.319300       5.477495
                         38       1    1hy5              1.319300       1.825832
                         38       1    1hy4z             1.319300       5.477495
                         38       1    1hy3z2            1.319300       8.367012
                         38       1    1hy2z3            1.319300       8.367012
                         38       1    1hyz4             1.319300       5.477495
                         38       1    1hz5              1.319300       1.825832

                         39       1    1ix6              2.487090      13.630788
                         39       1    1ix5y             2.487090      45.208208
                         39       1    1ix5z             2.487090      45.208208
                         39       1    1ix4y2            2.487090      78.302913
                         39       1    1ix4yz            2.487090     135.624624
                         39       1    1ix4z2            2.487090      78.302913
                         39       1    1ix3y3            2.487090      92.649256
                         39       1    1ix3y2z           2.487090     207.170035
                         39       1    1ix3yz2           2.487090     207.170035
                         39       1    1ix3z3            2.487090      92.649256
                         39       1    1ix2y4            2.487090      78.302913
                         39       1    1ix2y3z           2.487090     207.170035
                         39       1    1ix2y2z2          2.487090     267.455365
                         39       1    1ix2yz3           2.487090     207.170035
                         39       1    1ix2z4            2.487090      78.302913
                         39       1    1ixy5             2.487090      45.208208
                         39       1    1ixy4z            2.487090     135.624624
                         39       1    1ixy3z2           2.487090     207.170035
                         39       1    1ixy2z3           2.487090     207.170035
                         39       1    1ixyz4            2.487090     135.624624
                         39       1    1ixz5             2.487090      45.208208
                         39       1    1iy6              2.487090      13.630788
                         39       1    1iy5z             2.487090      45.208208
                         39       1    1iy4z2            2.487090      78.302913
                         39       1    1iy3z3            2.487090      92.649256
                         39       1    1iy2z4            2.487090      78.302913
                         39       1    1iyz5             2.487090      45.208208
                         39       1    1iz6              2.487090      13.630788

     The atoms of this atomic kind are PAW atoms (GAPW):
       Hard Gaussian function radius:                                      1.512
       Rho0 radius:                                                        1.512
       Maximum GTO radius used for PAW projector construction:            24.566

     GAPW Soft Basis Set                                          def2-QZVP_soft

       Number of orbital shell sets:                                          17
       Number of orbital shells:                                              17
       Number of primitive Cartesian functions:                               15
       Number of Cartesian basis functions:                                   72
       Number of spherical basis functions:                                   57
       Norm type:                                                              2

       Normalised Cartesian orbitals:

                        Set   Shell   Orbital            Exponent    Coefficient

                          1       1    1s         

                          2       1    1s         

                          3       1    1s         

                          4       1    1s                3.132430       1.678113

                          5       1    1s                0.987558       0.706044

                          6       1    1s                0.387657       0.350143

                          7       1    1s                0.149099       0.171008

                          8       1    1px               4.090031      -2.482665
                                                         1.622057      -1.818128
                          8       1    1py               4.090031      -2.482665
                                                         1.622057      -1.818128
                          8       1    1pz               4.090031      -2.482665
                                                         1.622057      -1.818128

                          9       1    1px               0.664423       0.855058
                          9       1    1py               0.664423       0.855058
                          9       1    1pz               0.664423       0.855058

                         10       1    1px               0.270998       0.278706
                         10       1    1py               0.270998       0.278706
                         10       1    1pz               0.270998       0.278706

                         11       1    1px               0.106887       0.087116
                         11       1    1py               0.106887       0.087116
                         11       1    1pz               0.106887       0.087116

                         12       1    1dx2              2.837000      10.207357
                         12       1    1dxy              2.837000      17.679661
                         12       1    1dxz              2.837000      17.679661
                         12       1    1dy2              2.837000      10.207357
                         12       1    1dyz              2.837000      17.679661
                         12       1    1dz2              2.837000      10.207357

                         13       1    1dx2              0.968000       1.554860
                         13       1    1dxy              0.968000       2.693097
                         13       1    1dxz              0.968000       2.693097
                         13       1    1dy2              0.968000       1.554860
                         13       1    1dyz              0.968000       2.693097
                         13       1    1dz2              0.968000       1.554860

                         14       1    1dx2              0.335000       0.242794
                         14       1    1dxy              0.335000       0.420531
                         14       1    1dxz              0.335000       0.420531
                         14       1    1dy2              0.335000       0.242794
                         14       1    1dyz              0.335000       0.420531
                         14       1    1dz2              0.335000       0.242794

                         15       1    1fx3              2.027000       7.217310
                         15       1    1fx2y             2.027000      16.138397
                         15       1    1fx2z             2.027000      16.138397
                         15       1    1fxy2             2.027000      16.138397
                         15       1    1fxyz             2.027000      27.952523
                         15       1    1fxz2             2.027000      16.138397
                         15       1    1fy3              2.027000       7.217310
                         15       1    1fy2z             2.027000      16.138397
                         15       1    1fyz2             2.027000      16.138397
                         15       1    1fz3              2.027000       7.217310

                         16       1    1fx3              0.685000       0.628432
                         16       1    1fx2y             0.685000       1.405216
                         16       1    1fx2z             0.685000       1.405216
                         16       1    1fxy2             0.685000       1.405216
                         16       1    1fxyz             0.685000       2.433906
                         16       1    1fxz2             0.685000       1.405216
                         16       1    1fy3              0.685000       0.628432
                         16       1    1fy2z             0.685000       1.405216
                         16       1    1fyz2             0.685000       1.405216
                         16       1    1fz3              0.685000       0.628432

                         17       1    1gx4              1.427000       2.958703
                         17       1    1gx3y             1.427000       7.827992
                         17       1    1gx3z             1.427000       7.827992
                         17       1    1gx2y2            1.427000      10.105894
                         17       1    1gx2yz            1.427000      17.503922
                         17       1    1gx2z2            1.427000      10.105894
                         17       1    1gxy3             1.427000       7.827992
                         17       1    1gxy2z            1.427000      17.503922
                         17       1    1gxyz2            1.427000      17.503922
                         17       1    1gxz3             1.427000       7.827992
                         17       1    1gy4              1.427000       2.958703
                         17       1    1gy3z             1.427000       7.827992
                         17       1    1gy2z2            1.427000      10.105894
                         17       1    1gyz3             1.427000       7.827992
                         17       1    1gz4              1.427000       2.958703

     AE Potential information for                                            ALL

       Description:                                       All-electron potential
                                          Krack, Parrinello, PCCP 2, 2105 (2000)

       Gaussian exponent of the core charge distribution:               5.979100
       Electronic configuration (s p d ...):                           4   3   0


 MOLECULE KIND INFORMATION


 All atoms are their own molecule, skipping detailed information


 TOTAL NUMBERS AND MAXIMUM NUMBERS

  Total number of            - Atomic kinds:                                   1
                             - Atoms:                                          2
                             - Shell sets:                                    34
                             - Shells:                                        34
                             - Primitive Cartesian functions:                 58
                             - Cartesian basis functions:                    144
                             - Spherical basis functions:                    114

  Maximum angular momentum of the orbital basis functions:                     4


 MODULE QUICKSTEP:  ATOMIC COORDINATES IN angstrom

  Atom  Kind  Element       X           Y           Z          Z(eff)       Mass

       1     1 N    7    8.000000    8.000000    7.451150      7.00      14.0067
       2     1 N    7    8.000000    8.000000    8.548850      7.00      14.0067




 SCF PARAMETERS         Density guess:                                   RESTART
                        --------------------------------------------------------
                        max_scf:                                             200
                        max_scf_history:                                       0
                        max_diis:                                              4
                        --------------------------------------------------------
                        eps_scf:                                        1.00E-06
                        eps_scf_history:                                0.00E+00
                        eps_diis:                                       1.00E-01
                        eps_eigval:                                     1.00E-05
                        --------------------------------------------------------
                        level_shift [a.u.]:                                 0.00
                        --------------------------------------------------------
                        Mixing method:                           DIRECT_P_MIXING
                        --------------------------------------------------------
                        No outer SCF

 PW_GRID| Information for grid number                                          1
 PW_GRID| Grid distributed over                                    40 processors
 PW_GRID| Real space group dimensions                                    40    1
 PW_GRID| the grid is blocked:                                                NO
 PW_GRID| Cutoff [a.u.]                                                    400.0
 PW_GRID| spherical cutoff:                                                   NO
 PW_GRID|   Bounds   1           -144     143                Points:         288
 PW_GRID|   Bounds   2           -144     143                Points:         288
 PW_GRID|   Bounds   3           -144     143                Points:         288
 PW_GRID| Volume element (a.u.^3)  0.1157E-02     Volume (a.u.^3)     27641.1785
 PW_GRID| Grid span                                                    FULLSPACE
 PW_GRID|   Distribution                         Average         Max         Min
 PW_GRID|   G-Vectors                           597196.8      597312      597024
 PW_GRID|   G-Rays                                2073.6        2074        2073
 PW_GRID|   Real Space Points                   597196.8      663552      580608

 PW_GRID| Information for grid number                                          2
 PW_GRID| Grid distributed over                                    40 processors
 PW_GRID| Real space group dimensions                                    40    1
 PW_GRID| the grid is blocked:                                                NO
 PW_GRID| Cutoff [a.u.]                                                    200.0
 PW_GRID| spherical cutoff:                                                   NO
 PW_GRID|   Bounds   1           -100      99                Points:         200
 PW_GRID|   Bounds   2           -100      99                Points:         200
 PW_GRID|   Bounds   3           -100      99                Points:         200
 PW_GRID| Volume element (a.u.^3)  0.3455E-02     Volume (a.u.^3)     27641.1785
 PW_GRID| Grid span                                                    FULLSPACE
 PW_GRID|   Distribution                         Average         Max         Min
 PW_GRID|   G-Vectors                           200000.0      200600      199600
 PW_GRID|   G-Rays                                1000.0        1003         998
 PW_GRID|   Real Space Points                   200000.0      200000      200000

 PW_GRID| Information for grid number                                          3
 PW_GRID| Grid distributed over                                    40 processors
 PW_GRID| Real space group dimensions                                    40    1
 PW_GRID| the grid is blocked:                                                NO
 PW_GRID| Cutoff [a.u.]                                                     66.7
 PW_GRID| spherical cutoff:                                                   NO
 PW_GRID|   Bounds   1            -60      59                Points:         120
 PW_GRID|   Bounds   2            -60      59                Points:         120
 PW_GRID|   Bounds   3            -60      59                Points:         120
 PW_GRID| Volume element (a.u.^3)  0.1600E-01     Volume (a.u.^3)     27641.1785
 PW_GRID| Grid span                                                    FULLSPACE
 PW_GRID|   Distribution                         Average         Max         Min
 PW_GRID|   G-Vectors                            43200.0       43560       42960
 PW_GRID|   G-Rays                                 360.0         363         358
 PW_GRID|   Real Space Points                    43200.0       43200       43200

 PW_GRID| Information for grid number                                          4
 PW_GRID| Grid distributed over                                    40 processors
 PW_GRID| Real space group dimensions                                    40    1
 PW_GRID| the grid is blocked:                                                NO
 PW_GRID| Cutoff [a.u.]                                                     22.2
 PW_GRID| spherical cutoff:                                                   NO
 PW_GRID|   Bounds   1            -36      35                Points:          72
 PW_GRID|   Bounds   2            -36      35                Points:          72
 PW_GRID|   Bounds   3            -36      35                Points:          72
 PW_GRID| Volume element (a.u.^3)  0.7406E-01     Volume (a.u.^3)     27641.1785
 PW_GRID| Grid span                                                    FULLSPACE
 PW_GRID|   Distribution                         Average         Max         Min
 PW_GRID|   G-Vectors                             9331.2        9432        9288
 PW_GRID|   G-Rays                                 129.6         131         129
 PW_GRID|   Real Space Points                     9331.2       10368        5184

 PW_GRID| Information for grid number                                          5
 PW_GRID| Grid distributed over                                    40 processors
 PW_GRID| Real space group dimensions                                    40    1
 PW_GRID| the grid is blocked:                                                NO
 PW_GRID| Cutoff [a.u.]                                                      7.4
 PW_GRID| spherical cutoff:                                                   NO
 PW_GRID|   Bounds   1            -20      19                Points:          40
 PW_GRID|   Bounds   2            -20      19                Points:          40
 PW_GRID|   Bounds   3            -20      19                Points:          40
 PW_GRID| Volume element (a.u.^3)  0.4319         Volume (a.u.^3)     27641.1785
 PW_GRID| Grid span                                                    FULLSPACE
 PW_GRID|   Distribution                         Average         Max         Min
 PW_GRID|   G-Vectors                             1600.0        1720        1520
 PW_GRID|   G-Rays                                  40.0          43          38
 PW_GRID|   Real Space Points                     1600.0        1600        1600

 POISSON| Solver                                          Martyna-Tuckerman (MT)
 POISSON| MT| Alpha                                                        7.000
 POISSON| MT| Relative cutoff                                                2.0
 POISSON| Periodicity                                                       NONE

 RS_GRID| Information for grid number                                          2
 RS_GRID|   Bounds   1           -100      99                Points:         200
 RS_GRID|   Bounds   2           -100      99                Points:         200
 RS_GRID|   Bounds   3           -100      99                Points:         200
 RS_GRID| Real space distribution over                                  5 groups
 RS_GRID| Real space distribution along direction                              2
 RS_GRID| Border size                                                         25
 RS_GRID| Real space distribution over                                  8 groups
 RS_GRID| Real space distribution along direction                              3
 RS_GRID| Border size                                                         25
 RS_GRID|   Distribution                         Average         Max         Min
 RS_GRID|   Planes                                  90.0          90          90
 RS_GRID|   Distribution                         Average         Max         Min
 RS_GRID|   Planes                                  75.0          75          75

 RS_GRID| Information for grid number                                          3
 RS_GRID|   Bounds   1            -60      59                Points:         120
 RS_GRID|   Bounds   2            -60      59                Points:         120
 RS_GRID|   Bounds   3            -60      59                Points:         120
 RS_GRID| Real space distribution over                                  5 groups
 RS_GRID| Real space distribution along direction                              2
 RS_GRID| Border size                                                         25
 RS_GRID| Real space distribution over                                  8 groups
 RS_GRID| Real space distribution along direction                              3
 RS_GRID| Border size                                                         25
 RS_GRID|   Distribution                         Average         Max         Min
 RS_GRID|   Planes                                  74.0          74          74
 RS_GRID|   Distribution                         Average         Max         Min
 RS_GRID|   Planes                                  65.0          65          65

 RS_GRID| Information for grid number                                          4
 RS_GRID|   Bounds   1            -36      35                Points:          72
 RS_GRID|   Bounds   2            -36      35                Points:          72
 RS_GRID|   Bounds   3            -36      35                Points:          72
 RS_GRID| Real space fully replicated
 RS_GRID| Group size                                                           1

 RS_GRID| Information for grid number                                          5
 RS_GRID|   Bounds   1            -20      19                Points:          40
 RS_GRID|   Bounds   2            -20      19                Points:          40
 RS_GRID|   Bounds   3            -20      19                Points:          40
 RS_GRID| Real space fully replicated
 RS_GRID| Group size                                                           1
 
 RI-RPA| using GPW style
 

  HFX_INFO| Replica ID:                                                        1
  HFX_INFO| EPS_SCHWARZ:                                                 2.0E-17
  HFX_INFO| EPS_SCHWARZ_FORCES                                           1.0E-06
  HFX_INFO| EPS_STORAGE_SCALING:                                         1.0E+00
  HFX_INFO| NBINS:                                                            64
  HFX_INFO| BLOCK_SIZE:                                                        1
  HFX_INFO| FRACTION:                                               1.0000000000
  HFX_INFO| Interaction Potential:                                       COULOMB
  HFX_INFO| Number of periodic shells considered:                           NONE
  HFX_INFO| Number of periodic cells considered:                            NONE


 Number of electrons:                                                         14
 Number of occupied orbitals:                                                  7
 Number of molecular orbitals:                                                 7

 Number of orbital functions:                                                114
 Number of independent orbital functions:                                    114

 Extrapolation method: initial_guess


 SCF WAVEFUNCTION OPTIMIZATION

  Step     Update method      Time    Convergence         Total energy    Change
  ------------------------------------------------------------------------------
     1 P_Mix/Diag. 0.40E+00    1.8     1.0171E-09      -109.4580431321 -1.09E+02

  *** SCF run converged in     1 steps ***


  Electronic density on regular grids:        -10.2036630578        3.7963369422
  Core density on regular grids:               14.0000000000        0.0000000000
  Hard and soft densities (Lebedev):          -24.7736398877      -20.9773027705
  Total Rho_soft + Rho1_hard - Rho1_soft      -14.0000001749
  Total charge density (r-space):              -0.0000001749
  Total Rho_soft + Rho0_soft (g-space):        -0.0000002711

  Overlap energy of the core charge distribution:               0.00000928679419
  Self energy of the core charge distribution:                -95.59915348636920
  Core Hamiltonian energy:                                    -14.95801683191861
  Hartree energy:                                              21.50388350593284
  Exchange-correlation energy:                                 -5.07801401701225

  GAPW| Exc from hard and soft atomic rho1:                    -8.50054770396973
  GAPW| local Eh = 1 center integrals:                         -6.82620388555444

  Total energy:                                              -109.45804313209722

 !-----------------------------------------------------------------------------!
                     Mulliken Population Analysis

 #  Atom  Element  Kind  Atomic population                           Net charge
       1     N        1          7.000000                             -0.000000
       2     N        1          7.000000                              0.000000
 # Total charge                             14.000000                 -0.000000

 !-----------------------------------------------------------------------------!

 !-----------------------------------------------------------------------------!
                           Hirshfeld Charges

  #Atom  Element  Kind  Ref Charge     Population                    Net charge
      1       N      1       7.000          6.998                         0.002
      2       N      1       7.000          6.998                         0.002

  Total Charge                                                            0.004
 !-----------------------------------------------------------------------------!


 RI-RPA section
 --------------

  Used number of processes per group:                                          1
  Maximum allowed memory usage per MPI processes:                     200.00 MiB

  HFX_MEM_INFO| Est. max. program size before HFX [MiB]:                     294
  HFX_MEM_INFO| Number of cart. primitive ERI's calculated:            419844481
  HFX_MEM_INFO| Number of sph. ERI's calculated:                        63325558
  HFX_MEM_INFO| Number of sph. ERI's stored in-core:                    63325558
  HFX_MEM_INFO| Number of sph. ERI's stored on disk:                           0
  HFX_MEM_INFO| Number of sph. ERI's calculated on the fly:                    0
  HFX_MEM_INFO| Total memory consumption ERI's RAM [MiB]:                    374
  HFX_MEM_INFO| Whereof max-vals [MiB]:                                        1
  HFX_MEM_INFO| Total compression factor ERI's RAM:                         1.29
  HFX_MEM_INFO| Total memory consumption ERI's disk [MiB]:                     0
  HFX_MEM_INFO| Total compression factor ERI's disk:                        0.00
  HFX_MEM_INFO| Size of density/Fock matrix [MiB]:                             0
  HFX_MEM_INFO| Size of buffers [MiB]:                                         0
  HFX_MEM_INFO| Est. max. program size after HFX  [MiB]:                     353

  GPW_INFO| Density cutoff [a.u.]:                                         150.0
  GPW_INFO| Relative density cutoff [a.u.]:                                 25.0
  RI_INFO| Cholesky decomposition group size:                                 40
  RI_INFO| Number of groups for auxiliary basis functions                     40
  RI_INFO| Occupied  basis set size:                                           7
  RI_INFO| Virtual   basis set size:                                         107
  RI_INFO| Auxiliary basis set size:                                         386
  RI_INFO| Total memory for (ia|K) integrals:                           2.21 MiB
  RI_INFO| Group size for frequency integration:                              40
  INTEG_INFO| MINIMAX quadrature
  INTEG_INFO| Number of integration points:                                   14
  INTEG_INFO| Number of integration points per RPA group:                     14
  MATRIX_INFO| Number row processes:                                           5
  MATRIX_INFO| Number column processes:                                        8
  MATRIX_INFO| Row block size:                                                74
  MATRIX_INFO| Column block size:                                             24
 Emin =  0.30525832945672371      Emax =   210.96219065280363      Range =   691.09396958392131     
  INTEG_INFO| Range for the minimax approximation:                      691.0940
  INTEG_INFO| Minimax parameters:                    Weights           Abscissas
                                                1.8468583677        0.2266574195
                                                2.2730497841        0.7319322044
                                                3.2576043529        1.4092562192
                                                5.1047595122        2.4318782775
                                                8.3981345070        4.0808198378
                                               14.2262141096        6.8396603887
                                               24.6306188422       11.5704270802
                                               43.5066480965       19.8512492718
                                               78.4686437148       34.6441972029
                                              144.9161788412       61.6652034736
                                              275.8843623950      112.3673648564
                                              552.6404672087      211.3665364529
                                             1260.2391190411      422.1458786659
                                             4656.9886187934     1025.0242467547
  INTEG_INFO| Range for the minimax approximation:                      691.0940
  INTEG_INFO| Gap:                                                        0.3053
  INTEG_INFO| Minimax parameters of the time grid:   Weights           Abscissas
                                                0.0010910851        0.0004205356
                                                0.0027999279        0.0023258656
                                                0.0053090484        0.0062822005
                                                0.0095644566        0.0135195912
                                                0.0171027332        0.0264965088
                                                0.0303031865        0.0495973734
                                                0.0529380036        0.0902229507
                                                0.0910540265        0.1605946855
                                                0.1543078116        0.2806481328
                                                0.2581383622        0.4826322707
                                                0.4278403472        0.8186846941
                                                0.7084406537        1.3747887312
                                                1.1993026499        2.3037923079
                                                2.2643611869        3.9499351292
 
 tau scaled:   1.3776382801490967E-003   7.6193353230334399E-003   2.0579947768134266E-002   4.4289016409844874E-002   8.6800281208909050E-002  0.16247672417543355       0.29556261693280039       0.52609436024321909       0.91937911503724967        1.5810617569976224        2.6819405568822705        4.5036894936959033        7.5470252099065283        12.939647334790186     
 
 
 omega scaled:   6.9189065236363090E-002  0.22342840199236808       0.43018719923546839       0.74235110041738395        1.2457042464860195        2.0878633042928216        3.5319692416030968        6.0597591903483741        10.575429763529725        18.823816997949386        34.301074081514514        64.521395820652799        128.86354570858973        312.89718921697778     
 
 
 weights_cos_tf_t_to_w
[...]
   
  The GW quasiparticle energies are calculated according to: 
  E_GW = E_SCF + Z * ( Sigc(E_SCF) + Sigx - vxc )
   
  The energy unit of the following table is eV.  Sigc_fit is a very conservative
  estimate of the statistical error of the fitting.
   
            MO      E_SCF       Sigc   Sigc_fit   Sigx-vxc          Z       E_GW
     1 ( occ )   -383.191      3.226      0.000    -42.174      1.000   -422.138
     2 ( occ )   -383.155      3.202      0.000    -42.108      1.000   -422.061
     3 ( occ )    -28.205      5.068      0.000    -11.342      1.000    -34.479
     4 ( occ )    -13.440      3.012      0.000     -7.307      1.000    -17.734
     5 ( occ )    -11.592      0.096      0.000     -4.808      1.000    -16.304
     6 ( occ )    -11.592      0.096      0.000     -4.808      1.000    -16.304
     7 ( occ )    -10.200      2.014      0.000     -6.493      1.000    -14.679
     8 ( vir )     -1.894     -2.354      0.000      6.690      1.000      2.443
     9 ( vir )     -1.894     -2.354      0.000      6.690      1.000      2.443
    10 ( vir )      3.363     -0.626      0.000      2.773      1.000      5.509
    11 ( vir )      4.308     -0.792      0.000      3.391      1.000      6.907
    12 ( vir )      4.308     -0.792      0.000      3.391      1.000      6.907
    13 ( vir )      5.496     -0.842      0.000      3.281      1.000      7.934
    14 ( vir )      6.491     -1.342      0.000      4.503      1.000      9.651
    15 ( vir )      7.316     -1.268      0.000      3.868      1.000      9.916
    16 ( vir )      7.316     -1.268      0.000      3.868      1.000      9.916
    17 ( vir )     13.175     -1.497      0.000      4.355      1.000     16.033
   
  GW HOMO-LUMO gap (eV)                                                    17.12
  

  Total RI-RPA Time=                                                   14.849967
  RI-RPA energy  =                                             -0.69008966284132

  Total EXX Time=                                                       8.569698
  EXX energy  =                                               -13.09434913305637

 ENERGY| Total FORCE_EVAL ( QS ) energy (a.u.):             -109.663920203272028


 -------------------------------------------------------------------------------
 -                                                                             -
 -                                DBCSR STATISTICS                             -
 -                                                                             -
 -------------------------------------------------------------------------------
 COUNTER                                    TOTAL       BLAS       SMM       ACC
 flops    57 x     7 x    57               181944     100.0%      0.0%      0.0%
 flops    57 x    57 x     7               272916     100.0%      0.0%      0.0%
 flops    57 x    57 x    57              1481544     100.0%      0.0%      0.0%
 flops   114 x   114 x    57              2963088     100.0%      0.0%      0.0%
 flops   193 x   193 x   193           1610348768     100.0%      0.0%      0.0%
 flops   193 x   193 x   330           2753446080     100.0%      0.0%      0.0%
 flops   386 x   114 x    57           4775666112     100.0%      0.0%      0.0%
 flops   193 x   193 x   308           7709649024     100.0%      0.0%      0.0%
 flops   386 x   114 x   193           8085118944     100.0%      0.0%      0.0%
 flops    57 x   513 x    57          10640449008     100.0%      0.0%      0.0%
 flops   193 x   193 x   345          11514410880     100.0%      0.0%      0.0%
 flops    57 x   570 x    57          21956482080     100.0%      0.0%      0.0%
 flops   193 x   193 x   322          32240350464     100.0%      0.0%      0.0%
 flops inhomo. stacks                           0       0.0%      0.0%      0.0%
 flops total                       101.290821E+09     100.0%      0.0%      0.0%
 flops max/rank                     16.663861E+09     100.0%      0.0%      0.0%
 matmuls inhomo. stacks                         0       0.0%      0.0%      0.0%
 matmuls total                              12916     100.0%      0.0%      0.0%
 number of processed stacks                  3184     100.0%      0.0%      0.0%
 average stack size                                     4.1       0.0       0.0
 marketing flops                   101.859115E+09
 -------------------------------------------------------------------------------
 # multiplications                            776
 max memory usage/rank             409.710592E+06
 # max total images/rank                        5
 # max 3D layers                                1
 # MPI messages exchanged                  967560
 MPI messages size (bytes):
  total size                         4.664724E+09
  min size                           0.000000E+00
  max size                         595.984000E+03
  average size                       4.821122E+03
 MPI breakdown and total messages size (bytes):
             size <=      128              949992                        0
       128 < size <=     8192                  30                   172368
      8192 < size <=    32768                   6                   155952
     32768 < size <=   131072                2916                151585344
    131072 < size <=  4194304               14616               4512902016
   4194304 < size <= 16777216                   0                        0
  16777216 < size                               0                        0
 -------------------------------------------------------------------------------

 *** WARNING in dbcsr_mm.F:278 :: Using a non-square number of MPI ranks ***
 *** might lead to poor performance. Used ranks: 40 Suggested: 36 81     ***

 -------------------------------------------------------------------------------
 -                                                                             -
 -                      DBCSR MESSAGE PASSING PERFORMANCE                      -
 -                                                                             -
 -------------------------------------------------------------------------------

 ROUTINE             CALLS      AVE VOLUME [Bytes]
 MP_Group               26
 MP_Bcast               14                     12.
 MP_Allreduce         4385                      8.
 MP_Alltoall          2344                  56532.
 MP_Wait             53808
 MP_ISend            51482                  12074.
 MP_IRecv            51482                     61.
 MP_Memory           79962
 -------------------------------------------------------------------------------


 MEMORY| Estimated peak process memory [MiB]                                 391

 -------------------------------------------------------------------------------
 ----                             MULTIGRID INFO                            ----
 -------------------------------------------------------------------------------
 count for grid        1:         120174          cutoff [a.u.]          200.00
 count for grid        2:          18042          cutoff [a.u.]           66.67
 count for grid        3:           6650          cutoff [a.u.]           22.22
 count for grid        4:           1289          cutoff [a.u.]            7.41
 total gridlevel count  :         146155

 -------------------------------------------------------------------------------
 -                                                                             -
 -                         MESSAGE PASSING PERFORMANCE                         -
 -                                                                             -
 -------------------------------------------------------------------------------

 ROUTINE             CALLS      AVE VOLUME [Bytes]
 MP_Group                5
 MP_Bcast              122                2435770.
 MP_Allreduce          342                  23632.
 MP_Sync                72
 MP_Alltoall           123                2311147.
 MP_ISendRecv          468                  45081.
 MP_Wait              1368
 MP_comm_split          10
 MP_ISend             5244                  55704.
 MP_IRecv             4160                 203674.
 MP_Recv                 6                    912.
 -------------------------------------------------------------------------------


 -------------------------------------------------------------------------------
 -                                                                             -
 -                           R E F E R E N C E S                               -
 -                                                                             -
 -------------------------------------------------------------------------------
 
 CP2K version 7.0 (Development Version), the CP2K developers group (2018).
 CP2K is freely available from https://www.cp2k.org/ .

 Schuett, Ole; Messmer, Peter; Hutter, Juerg; VandeVondele, Joost. 
 Electronic Structure Calculations on Graphics Processing Units, John Wiley & Sons, Ltd, 173-190 (2016). 
 GPU-Accelerated Sparse Matrix-Matrix Multiplication for Linear Scaling Density Functional Theory.
 https://dx.doi.org/10.1002/9781118670712.ch8


 Del Ben, M; Schuett, O; Wentz, T; Messmer, P; Hutter, J;
 VandeVondele, J. 
 COMPUTER PHYSICS COMMUNICATIONS, 187, 120-129 (2015). 
 Enabling simulation at the fifth rung of DFT: Large scale RPA
 calculations with excellent time to solution.
 https://dx.doi.org/10.1016/j.cpc.2014.10.021


 Borstnik, U; VandeVondele, J; Weber, V; Hutter, J. 
 PARALLEL COMPUTING, 40 (5-6), 47-58 (2014). 
 Sparse matrix multiplication: The distributed block-compressed sparse
 row library.
 https://dx.doi.org/10.1016/j.parco.2014.03.012


 Hutter, J; Iannuzzi, M; Schiffmann, F; VandeVondele, J. 
 WILEY INTERDISCIPLINARY REVIEWS-COMPUTATIONAL MOLECULAR SCIENCE, 4 (1), 15-25 (2014). 
 CP2K: atomistic simulations of condensed matter systems.
 https://dx.doi.org/10.1002/wcms.1159


 Del Ben, M; Hutter, J; VandeVondele, J. 
 JOURNAL OF CHEMICAL THEORY AND COMPUTATION, 9 (6), 2654-2671 (2013). 
 Electron Correlation in the Condensed Phase from a Resolution of
 Identity Approach Based on the Gaussian and Plane Waves Scheme.
 https://dx.doi.org/10.1021/ct4002202


 Del Ben, M; Hutter, J; VandeVondele, J. 
 JOURNAL OF CHEMICAL THEORY AND COMPUTATION, 8 (11), 4177-4188 (2012). 
 Second-Order Moller-Plesset Perturbation Theory in the Condensed Phase:
 An Efficient and Massively Parallel Gaussian and Plane Waves Approach.
 https://dx.doi.org/10.1021/ct300531w


 Guidon, M; Hutter, J; VandeVondele, J. 
 JOURNAL OF CHEMICAL THEORY AND COMPUTATION, 5 (11), 3010-3021 (2009). 
 Robust Periodic Hartree-Fock Exchange for Large-Scale Simulations Using
 Gaussian Basis Sets.
 https://dx.doi.org/10.1021/ct900494g


 Guidon, M; Schiffmann, F; Hutter, J; VandeVondele, J. 
 JOURNAL OF CHEMICAL PHYSICS, 128 (21), 214104 (2008). 
 Ab initio molecular dynamics using hybrid density functionals.
 https://dx.doi.org/10.1063/1.2931945


 Frigo, M; Johnson, SG. 
 PROCEEDINGS OF THE IEEE, 93 (2), 216-231 (2005). 
 The design and implementation of FFTW3.
 https://dx.doi.org/10.1109/JPROC.2004.840301


 Lippert, G; Hutter, J; Parrinello, M. 
 THEORETICAL CHEMISTRY ACCOUNTS, 103 (2), 124-140 (1999). 
 The Gaussian and augmented-plane-wave density functional method for ab
 initio molecular dynamics simulations.
 https://dx.doi.org/10.1007/s002140050523


 Krack, M; Parrinello, M. 
 PHYSICAL CHEMISTRY CHEMICAL PHYSICS, 2 (10), 2105-2112 (2000). 
 All-electron ab-initio molecular dynamics.
 https://dx.doi.org/10.1039/b001167n


 Martyna, GJ; Tuckerman, ME. 
 JOURNAL OF CHEMICAL PHYSICS, 110 (6), 2810-2821 (1999). 
 A reciprocal space based method for treating long range interactions in
 ab initio and force-field-based calculations in clusters.
 https://dx.doi.org/10.1063/1.477923


 Perdew, JP; Burke, K; Ernzerhof, M. 
 PHYSICAL REVIEW LETTERS, 77 (18), 3865-3868 (1996). 
 Generalized gradient approximation made simple.
 https://dx.doi.org/10.1103/PhysRevLett.77.3865


 -------------------------------------------------------------------------------
 -                                                                             -
 -                                T I M I N G                                  -
 -                                                                             -
 -------------------------------------------------------------------------------
 SUBROUTINE                       CALLS  ASD         SELF TIME        TOTAL TIME
                                MAXIMUM       AVERAGE  MAXIMUM  AVERAGE  MAXIMUM
 CP2K                                 1  1.0    0.015    0.020   27.186   27.187
 qs_energies                          1  2.0    0.000    0.001   26.244   26.244
 mp2_main                             1  3.0    0.000    0.001   23.466   23.473
 mp2_gpw_main                         1  4.0    0.000    0.001   14.850   14.850
 rpa_ri_compute_en                    1  5.0    0.000    0.000   12.389   12.390
 rpa_num_int                          1  6.0    0.001    0.002   12.387   12.388
 compute_vec_Sigma_x_minus_vxc_       1  4.0    0.000    0.001    8.570    8.570
 integrate_four_center                1  5.0    0.008    0.010    7.735    7.737
 dbcsr_multiply_generic             776  9.9    0.036    0.041    4.803    5.913
 GW_postprocessing                    1  7.0    0.000    0.000    5.010    5.010
 compute_self_energy_im_time_gw       1  8.0    0.002    0.002    5.009    5.009
 multiply_cannon                    776 10.9    0.123    0.135    3.165    4.888
 mp_waitall_1                     54460 13.4    1.814    3.661    1.814    3.661
 multiply_cannon_metrocomm3       14703 11.9    0.020    0.022    1.412    3.532
 calc_screening_functions             1  6.0    2.099    2.383    2.995    3.473
 mp_sync                             72  8.7    2.790    3.296    2.790    3.296
 multiply_cannon_multrec          14703 11.9    0.548    2.943    0.741    2.957
 integrate_four_center_main           1  6.0    0.000    0.000    0.368    2.916
 integrate_four_center_bin          128  7.0    0.368    2.915    0.368    2.915
 multiply_cannon_metrocomm1       14703 11.9    0.009    0.011    0.294    2.721
 compute_self_energy_im_time_gw     238  9.0    0.001    0.001    2.001    2.701
 qs_ks_build_kohn_sham_matrix         2  6.0    0.001    0.001    2.583    2.586
 rpa_num_int_im_t_alloc_mat_gw        1  7.0    0.000    0.000    0.086    2.521
 allocate_matrices_gw_im_time         1  8.0    0.000    0.000    0.086    2.521
 get_mat_3c_overl_int_gw              1  9.0    0.001    0.001    0.085    2.520
 fill_mat_3c_overl_int_gw             1 10.0    0.000    0.000    0.076    2.511
 rpa_num_int_im_t_alloc_mat_24        1  7.0    0.000    0.000    2.439    2.505
 cp_fm_copy_general                   2  8.0    0.000    0.000    2.439    2.505
 cp_fm_start_copy_general             2  9.0    0.001    0.002    2.439    2.505
 mp_allgather_i                       4 10.0    2.438    2.504    2.438    2.504
 GW3c_fill_mat                        1 11.0    0.029    1.144    0.062    2.495
 mp2_ri_gpw_compute_in                1  5.0    0.000    0.001    2.000    2.455
 mp_sum_l                          3840 10.9    1.459    2.438    1.459    2.438
 mp_sum_d                           957  6.1    1.278    2.341    1.278    2.341
 compute_3c_overlap_int               1  6.0    0.601    0.785    1.781    2.237
 compute_mat_P_omega                  1  7.0    0.000    0.000    2.223    2.224
 scf_env_do_scf                       1  3.0    0.000    0.000    2.100    2.100
 scf_env_do_scf_inner_loop            1  4.0    0.000    0.001    2.100    2.100
 dbcsr_trace_a_b_d                  479 10.0    0.002    0.029    1.030    2.017
 compute_self_energy_im_time_gw     238  9.0    0.000    0.001    1.011    1.998
 powell_optimize                 341448  7.0    1.474    1.851    1.474    1.851
 qs_ks_update_qs_env                  1  5.0    0.000    0.000    1.758    1.760
 rebuild_ks_matrix                    1  6.0    0.000    0.000    1.758    1.760
 pw_transfer                         39  8.7    0.003    0.004    1.416    1.479
 fft_wrap_pw1pw2                     31 10.0    0.000    0.001    1.387    1.447
 compute_mat_P_omega_calc_P          14  8.0    0.000    0.000    1.130    1.422
 mp_sum_dm                           18  7.6    0.941    1.371    0.941    1.371
 calc_pair_dist_radii                 1  6.0    0.516    0.605    1.094    1.323
 compute_3c_overlap_int_put_dbc   11560  7.0    1.088    1.318    1.088    1.318
 rs_pw_transfer                      22  8.7    0.001    0.001    1.185    1.240
 integrate_four_center_load           1  6.0    0.000    0.001    0.710    1.214
 hfx_load_balance                     1  7.0    0.000    0.000    0.710    1.214
 fft_wrap_pw1pw2_200                 18 10.9    0.093    0.124    1.115    1.170
 hfx_load_balance_range               1  8.0    0.001    0.022    0.665    1.169
 compute_self_energy_im_time_gw     238  9.0    0.001    0.001    0.822    1.150
 fft3d_ps                            31 12.0    0.469    0.540    1.022    1.132
 compute_self_energy_im_time_gw     238  9.0    0.001    0.001    1.112    1.125
 mp_comm_split_direct                 8  6.6    0.590    1.056    0.590    1.056
 make_m2s                          1552 10.9    0.032    0.036    0.761    1.048
 create_dbcsr_matrices_im_time        1  5.0    0.001    0.001    0.458    0.907
 mp_sum_dv                           40  8.0    0.574    0.818    0.574    0.818
 qs_init_subsys                       1  2.0    0.004    0.005    0.813    0.813
 fill_mat_P_global_from_mat_P_l      14  9.0    0.000    0.000    0.493    0.785
 mp_waitany                         632 10.6    0.567    0.756    0.567    0.756
 get_l_sq_wghts_sin_tf_t_to_w         1  7.0    0.287    0.747    0.747    0.748
 get_l_sq_wghts_cos_tf_w_to_t         1  7.0    0.284    0.728    0.729    0.730
 get_l_sq_wghts_cos_tf_t_to_w         1  7.0    0.286    0.728    0.728    0.730
 dbcsr_iterator_start            757594 12.1    0.021    0.578    0.026    0.725
 make_images                       1552 11.9    0.045    0.050    0.607    0.677
 dbcsr_iterator_stop             757594 12.1    0.018    0.529    0.022    0.648
 qs_rho_update_rho                    2  5.0    0.000    0.000    0.642    0.643
 qs_env_setup                         1  3.0    0.000    0.000    0.569    0.633
 qs_env_rebuild_pw_env                2  3.5    0.000    0.000    0.568    0.633
 calculate_rho_elec                   2  6.0    0.013    0.113    0.632    0.633
 pw_env_rebuild                       1  5.0    0.001    0.001    0.568    0.632
 mp_alltoall_z22v                    31 14.0    0.416    0.620    0.416    0.620
 prepare_gapw_den                     2  7.0    0.000    0.000    0.589    0.602
 density_rs2pw                        2  7.0    0.000    0.000    0.568    0.591
 mp_waitall_2                        84 11.0    0.537    0.591    0.537    0.591
 sum_up_and_integrate                 2  7.0    0.002    0.004    0.520    0.577
 integrate_v_rspace                   2  8.0    0.006    0.069    0.518    0.574
 qs_vxc_create                        2  7.0    0.000    0.000    0.548    0.548
 xc_vxc_pw_create                     1  9.0    0.006    0.009    0.548    0.548
 -------------------------------------------------------------------------------

 The number of warnings for this run is : 2
 
 -------------------------------------------------------------------------------
  **** **** ******  **  PROGRAM ENDED AT                 2019-05-31 16:38:56.064
 ***** ** ***  *** **   PROGRAM RAN ON                                    tcopt4
 **    ****   ******    PROGRAM RAN BY                                   wilhelm
 ***** **    ** ** **   PROGRAM PROCESS ID                                 77581
  **** **  *******  **  PROGRAM STOPPED IN /data/wilhelm/2_job_test/11_GW100/3_c
                                           alcs/13_N2
