 DBCSR| CPU Multiplication driver                                           BLAS
 DBCSR| Multrec recursion limit                                              512
 DBCSR| Multiplication stack size                                           1000
 DBCSR| Maximum elements for images                                    UNLIMITED
 DBCSR| Multiplicative factor virtual images                                   1
 DBCSR| Use multiplication densification                                       T
 DBCSR| Multiplication size stacks                                             3
 DBCSR| Number of 3D layers                                               SINGLE
 DBCSR| Use MPI memory allocation                                              T
 DBCSR| Use RMA algorithm                                                      F
 DBCSR| Use Communication thread                                               T
 DBCSR| Communication thread load                                             87


  **** **** ******  **  PROGRAM STARTED AT               2019-06-08 12:41:46.723
 ***** ** ***  *** **   PROGRAM STARTED ON                                tcopt4
 **    ****   ******    PROGRAM STARTED BY                               wilhelm
 ***** **    ** ** **   PROGRAM PROCESS ID                                144731
  **** **  *******  **  PROGRAM STARTED IN /data/wilhelm/2_job_test/11_GW100/3_c
                                           alcs/53_HCl

 CP2K| version string:                    CP2K version 7.0 (Development Version)
 CP2K| source code revision number:                                  git:bc2813a
 CP2K| cp2kflags: libint fftw3 libxc pexsi elpa=201705 parallel mpi3 scalapack q
 CP2K|            uip libderiv_max_am1=5 libint_max_am=6
 CP2K| is freely available from                            https://www.cp2k.org/
 CP2K| Program compiled at                         Sun Jun  2 14:38:23 CEST 2019
 CP2K| Program compiled on                                                tcopt4
 CP2K| Program compiled for                            local_valgrind_March_2019
 CP2K| Data directory path              /data/wilhelm/1_git_repository/cp2k/data
 CP2K| Input file name                                                    GW.inp

 GLOBAL| Force Environment number                                              1
 GLOBAL| Basis set file name                              BASIS_def2_QZVP_RI_ALL
 GLOBAL| Potential file name                                           POTENTIAL
 GLOBAL| MM Potential file name                                     MM_POTENTIAL
 GLOBAL| Coordinate file name                                         53_HCl.xyz
 GLOBAL| Method name                                                        CP2K
 GLOBAL| Project name                                                   ALL_ELEC
 GLOBAL| Preferred FFT library                                             FFTW3
 GLOBAL| Preferred diagonalization lib.                                       SL
 GLOBAL| Run type                                                         ENERGY
 GLOBAL| All-to-all communication in single precision                          F
 GLOBAL| FFTs using library dependent lengths                                  F
 GLOBAL| Global print level                                               MEDIUM
 GLOBAL| MPI I/O enabled                                                       T
 GLOBAL| Total number of message passing processes                            24
 GLOBAL| Number of threads for this process                                    1
 GLOBAL| This output is from process                                           0
 GLOBAL| CPU model name :  Intel(R) Xeon(R) CPU E5-2697 v3 @ 2.60GHz

 MEMORY| system memory details [Kb]
 MEMORY|                        rank 0           min           max       average
 MEMORY| MemTotal            396954008     396954008     396954008     396954008
 MEMORY| MemFree             340003184     340003184     340003184     340003184
 MEMORY| Buffers                376756        376756        376756        376756
 MEMORY| Cached               42945620      42945620      42945620      42945620
 MEMORY| Slab                  1479500       1479500       1479500       1479500
 MEMORY| SReclaimable          1338460       1338460       1338460       1338460
 MEMORY| MemLikelyFree       384664020     384664020     384664020     384664020


 *** Fundamental physical constants (SI units) ***

 *** Literature: B. J. Mohr and B. N. Taylor,
 ***             CODATA recommended values of the fundamental physical
 ***             constants: 2006, Web Version 5.1
 ***             http://physics.nist.gov/constants

 Speed of light in vacuum [m/s]                             2.99792458000000E+08
 Magnetic constant or permeability of vacuum [N/A**2]       1.25663706143592E-06
 Electric constant or permittivity of vacuum [F/m]          8.85418781762039E-12
 Planck constant (h) [J*s]                                  6.62606896000000E-34
 Planck constant (h-bar) [J*s]                              1.05457162825177E-34
 Elementary charge [C]                                      1.60217648700000E-19
 Electron mass [kg]                                         9.10938215000000E-31
 Electron g factor [ ]                                     -2.00231930436220E+00
 Proton mass [kg]                                           1.67262163700000E-27
 Fine-structure constant                                    7.29735253760000E-03
 Rydberg constant [1/m]                                     1.09737315685270E+07
 Avogadro constant [1/mol]                                  6.02214179000000E+23
 Boltzmann constant [J/K]                                   1.38065040000000E-23
 Atomic mass unit [kg]                                      1.66053878200000E-27
 Bohr radius [m]                                            5.29177208590000E-11

 *** Conversion factors ***

 [u] -> [a.u.]                                              1.82288848426455E+03
 [Angstrom] -> [Bohr] = [a.u.]                              1.88972613288564E+00
 [a.u.] = [Bohr] -> [Angstrom]                              5.29177208590000E-01
 [a.u.] -> [s]                                              2.41888432650478E-17
 [a.u.] -> [fs]                                             2.41888432650478E-02
 [a.u.] -> [J]                                              4.35974393937059E-18
 [a.u.] -> [N]                                              8.23872205491840E-08
 [a.u.] -> [K]                                              3.15774647902944E+05
 [a.u.] -> [kJ/mol]                                         2.62549961709828E+03
 [a.u.] -> [kcal/mol]                                       6.27509468713739E+02
 [a.u.] -> [Pa]                                             2.94210107994716E+13
 [a.u.] -> [bar]                                            2.94210107994716E+08
 [a.u.] -> [atm]                                            2.90362800883016E+08
 [a.u.] -> [eV]                                             2.72113838565563E+01
 [a.u.] -> [Hz]                                             6.57968392072181E+15
 [a.u.] -> [1/cm] (wave numbers)                            2.19474631370540E+05
 [a.u./Bohr**2] -> [1/cm]                                   5.14048714338585E+03
 

 CELL_TOP| Volume [angstrom^3]:                                         4096.000
 CELL_TOP| Vector a [angstrom    16.000     0.000     0.000    |a| =      16.000
 CELL_TOP| Vector b [angstrom     0.000    16.000     0.000    |b| =      16.000
 CELL_TOP| Vector c [angstrom     0.000     0.000    16.000    |c| =      16.000
 CELL_TOP| Angle (b,c), alpha [degree]:                                   90.000
 CELL_TOP| Angle (a,c), beta  [degree]:                                   90.000
 CELL_TOP| Angle (a,b), gamma [degree]:                                   90.000
 CELL_TOP| Numerically orthorhombic:                                         YES

 GENERATE|  Preliminary Number of Bonds generated:                             0
 GENERATE|  Achieved consistency in connectivity generation.

 CELL| Volume [angstrom^3]:                                             4096.000
 CELL| Vector a [angstrom]:      16.000     0.000     0.000    |a| =      16.000
 CELL| Vector b [angstrom]:       0.000    16.000     0.000    |b| =      16.000
 CELL| Vector c [angstrom]:       0.000     0.000    16.000    |c| =      16.000
 CELL| Angle (b,c), alpha [degree]:                                       90.000
 CELL| Angle (a,c), beta  [degree]:                                       90.000
 CELL| Angle (a,b), gamma [degree]:                                       90.000
 CELL| Numerically orthorhombic:                                             YES

 CELL_REF| Volume [angstrom^3]:                                         4096.000
 CELL_REF| Vector a [angstrom    16.000     0.000     0.000    |a| =      16.000
 CELL_REF| Vector b [angstrom     0.000    16.000     0.000    |b| =      16.000
 CELL_REF| Vector c [angstrom     0.000     0.000    16.000    |c| =      16.000
 CELL_REF| Angle (b,c), alpha [degree]:                                   90.000
 CELL_REF| Angle (a,c), beta  [degree]:                                   90.000
 CELL_REF| Angle (a,b), gamma [degree]:                                   90.000
 CELL_REF| Numerically orthorhombic:                                         YES

 *******************************************************************************
 *******************************************************************************
 **                                                                           **
 **     #####                         ##              ##                      **
 **    ##   ##            ##          ##              ##                      **
 **   ##     ##                       ##            ######                    **
 **   ##     ##  ##   ##  ##   #####  ##  ##   ####   ##    #####    #####    **
 **   ##     ##  ##   ##  ##  ##      ## ##   ##      ##   ##   ##  ##   ##   **
 **   ##  ## ##  ##   ##  ##  ##      ####     ###    ##   ######   ######    **
 **    ##  ###   ##   ##  ##  ##      ## ##      ##   ##   ##       ##        **
 **     #######   #####   ##   #####  ##  ##  ####    ##    #####   ##        **
 **           ##                                                    ##        **
 **                                                                           **
 **                                                ... make the atoms dance   **
 **                                                                           **
 **            Copyright (C) by CP2K developers group (2000 - 2019)           **
 **                                                                           **
 *******************************************************************************

 DFT| Spin restricted Kohn-Sham (RKS) calculation                            RKS
 DFT| Multiplicity                                                             1
 DFT| Number of spin states                                                    1
 DFT| Charge                                                                   0
 DFT| Self-interaction correction (SIC)                                       NO
 DFT| Cutoffs: density                                              1.000000E-10
 DFT|          gradient                                             1.000000E-10
 DFT|          tau                                                  1.000000E-10
 DFT|          cutoff_smoothing_range                               0.000000E+00
 DFT| XC density smoothing                                                  NONE
 DFT| XC derivatives                                                          PW
 FUNCTIONAL| ROUTINE=NEW
 FUNCTIONAL| PBE:
 FUNCTIONAL| J.P.Perdew, K.Burke, M.Ernzerhof, Phys. Rev. Letter, vol. 77, n 18,
 FUNCTIONAL|  pp. 3865-3868, (1996){spin unpolarized}                           

 QS| Method:                                                                GAPW
 QS| Density plane wave grid type                        NON-SPHERICAL FULLSPACE
 QS| Number of grid levels:                                                    4
 QS| Density cutoff [a.u.]:                                                200.0
 QS| Multi grid cutoff [a.u.]: 1) grid level                               200.0
 QS|                           2) grid level                                66.7
 QS|                           3) grid level                                22.2
 QS|                           4) grid level                                 7.4
 QS| Grid level progression factor:                                          3.0
 QS| Relative density cutoff [a.u.]:                                        25.0
 QS| Consistent realspace mapping and integration 
 QS| Interaction thresholds: eps_pgf_orb:                                1.0E-05
 QS|                         eps_filter_matrix:                          0.0E+00
 QS|                         eps_core_charge:                            1.0E-12
 QS|                         eps_rho_gspace:                             1.0E-10
 QS|                         eps_rho_rspace:                             1.0E-10
 QS|                         eps_gvg_rspace:                             1.0E-05
 QS|                         eps_ppl:                                    1.0E-02
 QS|                         eps_ppnl:                                   1.0E-07
 QS| GAPW|                   eps_fit:                                    1.0E-04
 QS| GAPW|                   eps_iso:                                    1.0E-12
 QS| GAPW|                   eps_svd:                                    1.0E-08
 QS| GAPW|                   eps_cpc:                                    1.0E-10
 QS| GAPW|   atom-r-grid: quadrature:                 GC_LOG                        
 QS| GAPW|      atom-s-grid:  max l :                                          8
 QS| GAPW|      max_l_rho0 :                                                   2


 ATOMIC KIND INFORMATION

  1. Atomic kind: H                                     Number of atoms:       1

     Orbital Basis Set                                                 def2-QZVP

       Number of orbital shell sets:                                          10
       Number of orbital shells:                                              10
       Number of primitive Cartesian functions:                               13
       Number of Cartesian basis functions:                                   35
       Number of spherical basis functions:                                   30
       Norm type:                                                              2

       Normalised Cartesian orbitals:

                        Set   Shell   Orbital            Exponent    Coefficient

                          1       1    1s              190.691690       0.195396
                                                        28.605532       0.363661
                                                         6.509594       0.612837
                                                         1.841246       0.914889

                          2       1    1s                0.598537       0.484985

                          3       1    1s                0.213976       0.224225

                          4       1    1s                0.080316       0.107526

                          5       1    1px               2.292000       4.019836
                          5       1    1py               2.292000       4.019836
                          5       1    1pz               2.292000       4.019836

                          6       1    1px               0.838000       1.142865
                          6       1    1py               0.838000       1.142865
                          6       1    1pz               0.838000       1.142865

                          7       1    1px               0.292000       0.305963
                          7       1    1py               0.292000       0.305963
                          7       1    1pz               0.292000       0.305963

                          8       1    1dx2              2.062000       5.840024
                          8       1    1dxy              2.062000      10.115218
                          8       1    1dxz              2.062000      10.115218
                          8       1    1dy2              2.062000       5.840024
                          8       1    1dyz              2.062000      10.115218
                          8       1    1dz2              2.062000       5.840024

                          9       1    1dx2              0.662000       0.799670
                          9       1    1dxy              0.662000       1.385069
                          9       1    1dxz              0.662000       1.385069
                          9       1    1dy2              0.662000       0.799670
                          9       1    1dyz              0.662000       1.385069
                          9       1    1dz2              0.662000       0.799670

                         10       1    1fx3              1.397000       3.123535
                         10       1    1fx2y             1.397000       6.984436
                         10       1    1fx2z             1.397000       6.984436
                         10       1    1fxy2             1.397000       6.984436
                         10       1    1fxyz             1.397000      12.097399
                         10       1    1fxz2             1.397000       6.984436
                         10       1    1fy3              1.397000       3.123535
                         10       1    1fy2z             1.397000       6.984436
                         10       1    1fyz2             1.397000       6.984436
                         10       1    1fz3              1.397000       3.123535

     RI Auxiliary Basis Set                                                RI-5Z

       Number of orbital shell sets:                                          21
       Number of orbital shells:                                              21
       Number of primitive Cartesian functions:                               21
       Number of Cartesian basis functions:                                  126
       Number of spherical basis functions:                                   91
       Norm type:                                                              2

       Normalised Cartesian orbitals:

                        Set   Shell   Orbital            Exponent    Coefficient

                          1       1    1s               23.321500       7.563581

                          2       1    1s                4.922970       2.355486

                          3       1    1s                1.775100       1.096042

                          4       1    1s                0.994218       0.709613

                          5       1    1s                0.506054       0.427620

                          6       1    1s                0.236911       0.242019

                          7       1    1px               5.974580      13.314483
                          7       1    1py               5.974580      13.314483
                          7       1    1pz               5.974580      13.314483

                          8       1    1px               2.052170       3.501118
                          8       1    1py               2.052170       3.501118
                          8       1    1pz               2.052170       3.501118

                          9       1    1px               1.248660       1.881462
                          9       1    1py               1.248660       1.881462
                          9       1    1pz               1.248660       1.881462

                         10       1    1px               0.805545       1.087808
                         10       1    1py               0.805545       1.087808
                         10       1    1pz               0.805545       1.087808

                         11       1    1px               0.347892       0.380843
                         11       1    1py               0.347892       0.380843
                         11       1    1pz               0.347892       0.380843

                         12       1    1dx2              3.858160      17.481346
                         12       1    1dxy              3.858160      30.278579
                         12       1    1dxz              3.858160      30.278579
                         12       1    1dy2              3.858160      17.481346
                         12       1    1dyz              3.858160      30.278579
                         12       1    1dz2              3.858160      17.481346

                         13       1    1dx2              1.710630       4.211459
                         13       1    1dxy              1.710630       7.294461
                         13       1    1dxz              1.710630       7.294461
                         13       1    1dy2              1.710630       4.211459
                         13       1    1dyz              1.710630       7.294461
                         13       1    1dz2              1.710630       4.211459

                         14       1    1dx2              0.979237       1.586584
                         14       1    1dxy              0.979237       2.748044
                         14       1    1dxz              0.979237       2.748044
                         14       1    1dy2              0.979237       1.586584
                         14       1    1dyz              0.979237       2.748044
                         14       1    1dz2              0.979237       1.586584

                         15       1    1dx2              0.625366       0.723843
                         15       1    1dxy              0.625366       1.253733
                         15       1    1dxz              0.625366       1.253733
                         15       1    1dy2              0.625366       0.723843
                         15       1    1dyz              0.625366       1.253733
                         15       1    1dz2              0.625366       0.723843

                         16       1    1fx3              3.101510      18.792914
                         16       1    1fx2y             3.101510      42.022232
                         16       1    1fx2z             3.101510      42.022232
                         16       1    1fxy2             3.101510      42.022232
                         16       1    1fxyz             3.101510      72.784641
                         16       1    1fxz2             3.101510      42.022232
                         16       1    1fy3              3.101510      18.792914
                         16       1    1fy2z             3.101510      42.022232
                         16       1    1fyz2             3.101510      42.022232
                         16       1    1fz3              3.101510      18.792914

                         17       1    1fx3              1.198110       2.210915
                         17       1    1fx2y             1.198110       4.943756
                         17       1    1fx2z             1.198110       4.943756
                         17       1    1fxy2             1.198110       4.943756
                         17       1    1fxyz             1.198110       8.562836
                         17       1    1fxz2             1.198110       4.943756
                         17       1    1fy3              1.198110       2.210915
                         17       1    1fy2z             1.198110       4.943756
                         17       1    1fyz2             1.198110       4.943756
                         17       1    1fz3              1.198110       2.210915

                         18       1    1fx3              0.572873       0.420326
                         18       1    1fx2y             0.572873       0.939876
                         18       1    1fx2z             0.572873       0.939876
                         18       1    1fxy2             0.572873       0.939876
                         18       1    1fxyz             0.572873       1.627914
                         18       1    1fxz2             0.572873       0.939876
                         18       1    1fy3              0.572873       0.420326
                         18       1    1fy2z             0.572873       0.939876
                         18       1    1fyz2             0.572873       0.939876
                         18       1    1fz3              0.572873       0.420326

                         19       1    1gx4              2.987800      22.576266
                         19       1    1gx3y             2.987800      59.731185
                         19       1    1gx3z             2.987800      59.731185
                         19       1    1gx2y2            2.987800      77.112629
                         19       1    1gx2yz            2.987800     133.562991
                         19       1    1gx2z2            2.987800      77.112629
                         19       1    1gxy3             2.987800      59.731185
                         19       1    1gxy2z            2.987800     133.562991
                         19       1    1gxyz2            2.987800     133.562991
                         19       1    1gxz3             2.987800      59.731185
                         19       1    1gy4              2.987800      22.576266
                         19       1    1gy3z             2.987800      59.731185
                         19       1    1gy2z2            2.987800      77.112629
                         19       1    1gyz3             2.987800      59.731185
                         19       1    1gz4              2.987800      22.576266

                         20       1    1gx4              1.231920       1.974865
                         20       1    1gx3y             1.231920       5.225001
                         20       1    1gx3z             1.231920       5.225001
                         20       1    1gx2y2            1.231920       6.745447
                         20       1    1gx2yz            1.231920      11.683456
                         20       1    1gx2z2            1.231920       6.745447
                         20       1    1gxy3             1.231920       5.225001
                         20       1    1gxy2z            1.231920      11.683456
                         20       1    1gxyz2            1.231920      11.683456
                         20       1    1gxz3             1.231920       5.225001
                         20       1    1gy4              1.231920       1.974865
                         20       1    1gy3z             1.231920       5.225001
                         20       1    1gy2z2            1.231920       6.745447
                         20       1    1gyz3             1.231920       5.225001
                         20       1    1gz4              1.231920       1.974865

                         21       1    1hx5              3.247390      34.106027
                         21       1    1hx4y             3.247390     102.318080
                         21       1    1hx4z             3.247390     102.318080
                         21       1    1hx3y2            3.247390     156.293448
                         21       1    1hx3yz            3.247390     270.708193
                         21       1    1hx3z2            3.247390     156.293448
                         21       1    1hx2y3            3.247390     156.293448
                         21       1    1hx2y2z           3.247390     349.482775
                         21       1    1hx2yz2           3.247390     349.482775
                         21       1    1hx2z3            3.247390     156.293448
                         21       1    1hxy4             3.247390     102.318080
                         21       1    1hxy3z            3.247390     270.708193
                         21       1    1hxy2z2           3.247390     349.482775
                         21       1    1hxyz3            3.247390     270.708193
                         21       1    1hxz4             3.247390     102.318080
                         21       1    1hy5              3.247390      34.106027
                         21       1    1hy4z             3.247390     102.318080
                         21       1    1hy3z2            3.247390     156.293448
                         21       1    1hy2z3            3.247390     156.293448
                         21       1    1hyz4             3.247390     102.318080
                         21       1    1hz5              3.247390      34.106027

     The atoms of this atomic kind are PAW atoms (GAPW):
       Hard Gaussian function radius:                                      1.200
       Rho0 radius:                                                        1.200
       Maximum GTO radius used for PAW projector construction:            24.566

     GAPW Soft Basis Set                                          def2-QZVP_soft

       Number of orbital shell sets:                                          10
       Number of orbital shells:                                              10
       Number of primitive Cartesian functions:                               10
       Number of Cartesian basis functions:                                   35
       Number of spherical basis functions:                                   30
       Norm type:                                                              2

       Normalised Cartesian orbitals:

                        Set   Shell   Orbital            Exponent    Coefficient

                          1       1    1s                1.841246       0.914889

                          2       1    1s                0.598537       0.484985

                          3       1    1s                0.213976       0.224225

                          4       1    1s                0.080316       0.107526

                          5       1    1px               2.292000       4.019836
                          5       1    1py               2.292000       4.019836
                          5       1    1pz               2.292000       4.019836

                          6       1    1px               0.838000       1.142865
                          6       1    1py               0.838000       1.142865
                          6       1    1pz               0.838000       1.142865

                          7       1    1px               0.292000       0.305963
                          7       1    1py               0.292000       0.305963
                          7       1    1pz               0.292000       0.305963

                          8       1    1dx2              2.062000       5.840024
                          8       1    1dxy              2.062000      10.115218
                          8       1    1dxz              2.062000      10.115218
                          8       1    1dy2              2.062000       5.840024
                          8       1    1dyz              2.062000      10.115218
                          8       1    1dz2              2.062000       5.840024

                          9       1    1dx2              0.662000       0.799670
                          9       1    1dxy              0.662000       1.385069
                          9       1    1dxz              0.662000       1.385069
                          9       1    1dy2              0.662000       0.799670
                          9       1    1dyz              0.662000       1.385069
                          9       1    1dz2              0.662000       0.799670

                         10       1    1fx3              1.397000       3.123535
                         10       1    1fx2y             1.397000       6.984436
                         10       1    1fx2z             1.397000       6.984436
                         10       1    1fxy2             1.397000       6.984436
                         10       1    1fxyz             1.397000      12.097399
                         10       1    1fxz2             1.397000       6.984436
                         10       1    1fy3              1.397000       3.123535
                         10       1    1fy2z             1.397000       6.984436
                         10       1    1fyz2             1.397000       6.984436
                         10       1    1fz3              1.397000       3.123535

     AE Potential information for                                            ALL

       Description:                                       All-electron potential
                                          Krack, Parrinello, PCCP 2, 2105 (2000)

       Gaussian exponent of the core charge distribution:              12.500000
       Electronic configuration (s p d ...):                           1   0   0

  2. Atomic kind: Cl                                    Number of atoms:       1

     Orbital Basis Set                                                 def2-QZVP

       Number of orbital shell sets:                                          22
       Number of orbital shells:                                              22
       Number of primitive Cartesian functions:                               41
       Number of Cartesian basis functions:                                   86
       Number of spherical basis functions:                                   70
       Norm type:                                                              2

       Normalised Cartesian orbitals:

                        Set   Shell   Orbital            Exponent    Coefficient

                          1       1    1s          1467459.009500       0.425773
                                                    219756.164330       0.796829
                                                     50010.770301       1.380227
                                                     14164.823918       2.257494
                                                      4620.746552       3.521527
                                                      1667.899163       5.224536
                                                       650.291993       7.246291
                                                       269.380374       8.968589
                                                       117.067521       9.076269
                                                        52.811767       6.264795

                          2       1    1s              461.427700       1.611036
                                                       142.126654       6.095348
                                                        54.437839      11.498871

                          3       1    1s               24.160770       7.766819

                          4       1    1s                9.708354       3.919849

                          5       1    1s                4.564070       2.225483

                          6       1    1s                2.119474       1.251933

                          7       1    1s                0.757224       0.578533

                          8       1    1s                0.337472       0.315565

                          9       1    1s                0.138608       0.161901

                         10       1    1px            2501.945789       6.358182
                                                       592.880593       9.140815
                                                       192.180892      12.125297
                                                        72.875710      14.188254
                                                        30.436358      13.984205
                                                        13.490179      10.535628
                                                         6.147807       5.502251
                                                         2.845094       1.581259
                         10       1    1py            2501.945789       6.358182
                                                       592.880593       9.140815
                                                       192.180892      12.125297
                                                        72.875710      14.188254
                                                        30.436358      13.984205
                                                        13.490179      10.535628
                                                         6.147807       5.502251
                                                         2.845094       1.581259
                         10       1    1pz            2501.945789       6.358182
                                                       592.880593       9.140815
                                                       192.180892      12.125297
                                                        72.875710      14.188254
                                                        30.436358      13.984205
                                                        13.490179      10.535628
                                                         6.147807       5.502251
                                                         2.845094       1.581259

                         11       1    1px             105.393979     -25.961556
                                                         6.736974      15.579070
                         11       1    1py             105.393979     -25.961556
                                                         6.736974      15.579070
                         11       1    1pz             105.393979     -25.961556
                                                         6.736974      15.579070

                         12       1    1px               1.242110       1.869132
                         12       1    1py               1.242110       1.869132
                         12       1    1pz               1.242110       1.869132

                         13       1    1px               0.556697       0.685431
                         13       1    1py               0.556697       0.685431
                         13       1    1pz               0.556697       0.685431

                         14       1    1px               0.233878       0.231834
                         14       1    1py               0.233878       0.231834
                         14       1    1pz               0.233878       0.231834

                         15       1    1px               0.093164       0.073367
                         15       1    1py               0.093164       0.073367
                         15       1    1pz               0.093164       0.073367

                         16       1    1dx2              5.191000      29.383177
                         16       1    1dxy              5.191000      50.893156
                         16       1    1dxz              5.191000      50.893156
                         16       1    1dy2              5.191000      29.383177
                         16       1    1dyz              5.191000      50.893156
                         16       1    1dz2              5.191000      29.383177

                         17       1    1dx2              1.276000       2.521437
                         17       1    1dxy              1.276000       4.367257
                         17       1    1dxz              1.276000       4.367257
                         17       1    1dy2              1.276000       2.521437
                         17       1    1dyz              1.276000       4.367257
                         17       1    1dz2              1.276000       2.521437

                         18       1    1dx2              0.583000       0.640220
                         18       1    1dxy              0.583000       1.108894
                         18       1    1dxz              0.583000       1.108894
                         18       1    1dy2              0.583000       0.640220
                         18       1    1dyz              0.583000       1.108894
                         18       1    1dz2              0.583000       0.640220

                         19       1    1dx2              0.243000       0.138427
                         19       1    1dxy              0.243000       0.239762
                         19       1    1dxz              0.243000       0.239762
                         19       1    1dy2              0.243000       0.138427
                         19       1    1dyz              0.243000       0.239762
                         19       1    1dz2              0.243000       0.138427

                         20       1    1fx3              0.423000       0.212432
                         20       1    1fx2y             0.423000       0.475013
                         20       1    1fx2z             0.423000       0.475013
                         20       1    1fxy2             0.423000       0.475013
                         20       1    1fxyz             0.423000       0.822746
                         20       1    1fxz2             0.423000       0.475013
                         20       1    1fy3              0.423000       0.212432
                         20       1    1fy2z             0.423000       0.475013
                         20       1    1fyz2             0.423000       0.475013
                         20       1    1fz3              0.423000       0.212432

                         21       1    1fx3              1.089000       1.783476
                         21       1    1fx2y             1.089000       3.987973
                         21       1    1fx2z             1.089000       3.987973
                         21       1    1fxy2             1.089000       3.987973
                         21       1    1fxyz             1.089000       6.907371
                         21       1    1fxz2             1.089000       3.987973
                         21       1    1fy3              1.089000       1.783476
                         21       1    1fy2z             1.089000       3.987973
                         21       1    1fyz2             1.089000       3.987973
                         21       1    1fz3              1.089000       1.783476

                         22       1    1gx4              0.827000       0.660048
                         22       1    1gx3y             0.827000       1.746323
                         22       1    1gx3z             0.827000       1.746323
                         22       1    1gx2y2            0.827000       2.254493
                         22       1    1gx2yz            0.827000       3.904897
                         22       1    1gx2z2            0.827000       2.254493
                         22       1    1gxy3             0.827000       1.746323
                         22       1    1gxy2z            0.827000       3.904897
                         22       1    1gxyz2            0.827000       3.904897
                         22       1    1gxz3             0.827000       1.746323
                         22       1    1gy4              0.827000       0.660048
                         22       1    1gy3z             0.827000       1.746323
                         22       1    1gy2z2            0.827000       2.254493
                         22       1    1gyz3             0.827000       1.746323
                         22       1    1gz4              0.827000       0.660048

     RI Auxiliary Basis Set                                                RI-5Z

       Number of orbital shell sets:                                          48
       Number of orbital shells:                                              48
       Number of primitive Cartesian functions:                               48
       Number of Cartesian basis functions:                                  335
       Number of spherical basis functions:                                  230
       Norm type:                                                              2

       Normalised Cartesian orbitals:

                        Set   Shell   Orbital            Exponent    Coefficient

                          1       1    1s             1275.190000     152.086710

                          2       1    1s              308.271000      52.433590

                          3       1    1s              107.711000      23.828963

                          4       1    1s               34.462700      10.137295

                          5       1    1s               14.452900       5.282948

                          6       1    1s                7.544300       3.244325

                          7       1    1s                3.685440       1.895733

                          8       1    1s                1.789660       1.102778

                          9       1    1s                1.072910       0.751333

                         10       1    1s                0.736635       0.566695

                         11       1    1s                0.332604       0.312145

                         12       1    1s                0.183773       0.200042

                         13       1    1px             405.243000    2591.698576
                         13       1    1py             405.243000    2591.698576
                         13       1    1pz             405.243000    2591.698576

                         14       1    1px             117.714000     552.681891
                         14       1    1py             117.714000     552.681891
                         14       1    1pz             117.714000     552.681891

                         15       1    1px              37.138800     130.684753
                         15       1    1py              37.138800     130.684753
                         15       1    1pz              37.138800     130.684753

                         16       1    1px              19.320600      57.738547
                         16       1    1py              19.320600      57.738547
                         16       1    1pz              19.320600      57.738547

                         17       1    1px               8.503760      20.699213
                         17       1    1py               8.503760      20.699213
                         17       1    1pz               8.503760      20.699213

                         18       1    1px               4.262460       8.730025
                         18       1    1py               4.262460       8.730025
                         18       1    1pz               4.262460       8.730025

                         19       1    1px               1.929040       3.240534
                         19       1    1py               1.929040       3.240534
                         19       1    1pz               1.929040       3.240534

                         20       1    1px               1.246920       1.878185
                         20       1    1py               1.246920       1.878185
                         20       1    1pz               1.246920       1.878185

                         21       1    1px               0.739900       0.978152
                         21       1    1py               0.739900       0.978152
                         21       1    1pz               0.739900       0.978152

                         22       1    1px               0.495422       0.592460
                         22       1    1py               0.495422       0.592460
                         22       1    1pz               0.495422       0.592460

                         23       1    1px               0.264132       0.269908
                         23       1    1py               0.264132       0.269908
                         23       1    1pz               0.264132       0.269908

                         24       1    1dx2            118.091000    6962.879136
                         24       1    1dxy            118.091000   12060.060431
                         24       1    1dxz            118.091000   12060.060431
                         24       1    1dy2            118.091000    6962.879136
                         24       1    1dyz            118.091000   12060.060431
                         24       1    1dz2            118.091000    6962.879136

                         25       1    1dx2             39.157400    1008.866472
                         25       1    1dxy             39.157400    1747.407988
                         25       1    1dxz             39.157400    1747.407988
                         25       1    1dy2             39.157400    1008.866472
                         25       1    1dyz             39.157400    1747.407988
                         25       1    1dz2             39.157400    1008.866472

                         26       1    1dx2             13.190700     150.272040
                         26       1    1dxy             13.190700     260.278808
                         26       1    1dxz             13.190700     260.278808
                         26       1    1dy2             13.190700     150.272040
                         26       1    1dyz             13.190700     260.278808
                         26       1    1dz2             13.190700     150.272040

                         27       1    1dx2              6.218710      40.307419
                         27       1    1dxy              6.218710      69.814498
                         27       1    1dxz              6.218710      69.814498
                         27       1    1dy2              6.218710      40.307419
                         27       1    1dyz              6.218710      69.814498
                         27       1    1dz2              6.218710      40.307419

                         28       1    1dx2              2.507050       8.221380
                         28       1    1dxy              2.507050      14.239847
                         28       1    1dxz              2.507050      14.239847
                         28       1    1dy2              2.507050       8.221380
                         28       1    1dyz              2.507050      14.239847
                         28       1    1dz2              2.507050       8.221380

                         29       1    1dx2              1.522240       3.433641
                         29       1    1dxy              1.522240       5.947241
                         29       1    1dxz              1.522240       5.947241
                         29       1    1dy2              1.522240       3.433641
                         29       1    1dyz              1.522240       5.947241
                         29       1    1dz2              1.522240       3.433641

                         30       1    1dx2              0.872617       1.296734
                         30       1    1dxy              0.872617       2.246009
                         30       1    1dxz              0.872617       2.246009
                         30       1    1dy2              0.872617       1.296734
                         30       1    1dyz              0.872617       2.246009
                         30       1    1dz2              0.872617       1.296734

                         31       1    1dx2              0.431274       0.377770
                         31       1    1dxy              0.431274       0.654317
                         31       1    1dxz              0.431274       0.654317
                         31       1    1dy2              0.431274       0.377770
                         31       1    1dyz              0.431274       0.654317
                         31       1    1dz2              0.431274       0.377770

                         32       1    1dx2              0.231014       0.126700
                         32       1    1dxy              0.231014       0.219451
                         32       1    1dxz              0.231014       0.219451
                         32       1    1dy2              0.231014       0.126700
                         32       1    1dyz              0.231014       0.219451
                         32       1    1dz2              0.231014       0.126700

                         33       1    1fx3             21.558400    1474.319577
                         33       1    1fx2y            21.558400    3296.678795
                         33       1    1fx2z            21.558400    3296.678795
                         33       1    1fxy2            21.558400    3296.678795
                         33       1    1fxyz            21.558400    5710.015169
                         33       1    1fxz2            21.558400    3296.678795
                         33       1    1fy3             21.558400    1474.319577
                         33       1    1fy2z            21.558400    3296.678795
                         33       1    1fyz2            21.558400    3296.678795
                         33       1    1fz3             21.558400    1474.319577

                         34       1    1fx3             10.107900     268.189368
                         34       1    1fx2y            10.107900     599.689658
                         34       1    1fx2z            10.107900     599.689658
                         34       1    1fxy2            10.107900     599.689658
                         34       1    1fxyz            10.107900    1038.692957
                         34       1    1fxz2            10.107900     599.689658
                         34       1    1fy3             10.107900     268.189368
                         34       1    1fy2z            10.107900     599.689658
                         34       1    1fyz2            10.107900     599.689658
                         34       1    1fz3             10.107900     268.189368

                         35       1    1fx3              4.921690      53.114308
                         35       1    1fx2y             4.921690     118.767202
                         35       1    1fx2z             4.921690     118.767202
                         35       1    1fxy2             4.921690     118.767202
                         35       1    1fxyz             4.921690     205.710829
                         35       1    1fxz2             4.921690     118.767202
                         35       1    1fy3              4.921690      53.114308
                         35       1    1fy2z             4.921690     118.767202
                         35       1    1fyz2             4.921690     118.767202
                         35       1    1fz3              4.921690      53.114308

                         36       1    1fx3              2.194960       8.633051
                         36       1    1fx2y             2.194960      19.304090
                         36       1    1fx2z             2.194960      19.304090
                         36       1    1fxy2             2.194960      19.304090
                         36       1    1fxyz             2.194960      33.435664
                         36       1    1fxz2             2.194960      19.304090
                         36       1    1fy3              2.194960       8.633051
                         36       1    1fy2z             2.194960      19.304090
                         36       1    1fyz2             2.194960      19.304090
                         36       1    1fz3              2.194960       8.633051

                         37       1    1fx3              1.541620       3.898553
                         37       1    1fx2y             1.541620       8.717430
                         37       1    1fx2z             1.541620       8.717430
                         37       1    1fxy2             1.541620       8.717430
                         37       1    1fxyz             1.541620      15.099031
                         37       1    1fxz2             1.541620       8.717430
                         37       1    1fy3              1.541620       3.898553
                         37       1    1fy2z             1.541620       8.717430
                         37       1    1fyz2             1.541620       8.717430
                         37       1    1fz3              1.541620       3.898553

                         38       1    1fx3              0.806943       0.908554
                         38       1    1fx2y             0.806943       2.031589
                         38       1    1fx2z             0.806943       2.031589
                         38       1    1fxy2             0.806943       2.031589
                         38       1    1fxyz             0.806943       3.518816
                         38       1    1fxz2             0.806943       2.031589
                         38       1    1fy3              0.806943       0.908554
                         38       1    1fy2z             0.806943       2.031589
                         38       1    1fyz2             0.806943       2.031589
                         38       1    1fz3              0.806943       0.908554

                         39       1    1fx3              0.436387       0.227859
                         39       1    1fx2y             0.436387       0.509508
                         39       1    1fx2z             0.436387       0.509508
                         39       1    1fxy2             0.436387       0.509508
                         39       1    1fxyz             0.436387       0.882494
                         39       1    1fxz2             0.436387       0.509508
                         39       1    1fy3              0.436387       0.227859
                         39       1    1fy2z             0.436387       0.509508
                         39       1    1fyz2             0.436387       0.509508
                         39       1    1fz3              0.436387       0.227859

                         40       1    1gx4              6.771040     214.159685
                         40       1    1gx3y             6.771040     566.613266
                         40       1    1gx3z             6.771040     566.613266
                         40       1    1gx2y2            6.771040     731.494582
                         40       1    1gx2yz            6.771040    1266.985781
                         40       1    1gx2z2            6.771040     731.494582
                         40       1    1gxy3             6.771040     566.613266
                         40       1    1gxy2z            6.771040    1266.985781
                         40       1    1gxyz2            6.771040    1266.985781
                         40       1    1gxz3             6.771040     566.613266
                         40       1    1gy4              6.771040     214.159685
                         40       1    1gy3z             6.771040     566.613266
                         40       1    1gy2z2            6.771040     731.494582
                         40       1    1gyz3             6.771040     566.613266
                         40       1    1gz4              6.771040     214.159685

                         41       1    1gx4              2.966800      22.142577
                         41       1    1gx3y             2.966800      58.583753
                         41       1    1gx3z             2.966800      58.583753
                         41       1    1gx2y2            2.966800      75.631300
                         41       1    1gx2yz            2.966800     130.997254
                         41       1    1gx2z2            2.966800      75.631300
                         41       1    1gxy3             2.966800      58.583753
                         41       1    1gxy2z            2.966800     130.997254
                         41       1    1gxyz2            2.966800     130.997254
                         41       1    1gxz3             2.966800      58.583753
                         41       1    1gy4              2.966800      22.142577
                         41       1    1gy3z             2.966800      58.583753
                         41       1    1gy2z2            2.966800      75.631300
                         41       1    1gyz3             2.966800      58.583753
                         41       1    1gz4              2.966800      22.142577

                         42       1    1gx4              1.635990       4.308561
                         42       1    1gx3y             1.635990      11.399380
                         42       1    1gx3z             1.635990      11.399380
                         42       1    1gx2y2            1.635990      14.716536
                         42       1    1gx2yz            1.635990      25.489788
                         42       1    1gx2z2            1.635990      14.716536
                         42       1    1gxy3             1.635990      11.399380
                         42       1    1gxy2z            1.635990      25.489788
                         42       1    1gxyz2            1.635990      25.489788
                         42       1    1gxz3             1.635990      11.399380
                         42       1    1gy4              1.635990       4.308561
                         42       1    1gy3z             1.635990      11.399380
                         42       1    1gy2z2            1.635990      14.716536
                         42       1    1gyz3             1.635990      11.399380
                         42       1    1gz4              1.635990       4.308561

                         43       1    1gx4              0.990518       1.084069
                         43       1    1gx3y             0.990518       2.868177
                         43       1    1gx3z             0.990518       2.868177
                         43       1    1gx2y2            0.990518       3.702801
                         43       1    1gx2yz            0.990518       6.413439
                         43       1    1gx2z2            0.990518       3.702801
                         43       1    1gxy3             0.990518       2.868177
                         43       1    1gxy2z            0.990518       6.413439
                         43       1    1gxyz2            0.990518       6.413439
                         43       1    1gxz3             0.990518       2.868177
                         43       1    1gy4              0.990518       1.084069
                         43       1    1gy3z             0.990518       2.868177
                         43       1    1gy2z2            0.990518       3.702801
                         43       1    1gyz3             0.990518       2.868177
                         43       1    1gz4              0.990518       1.084069

                         44       1    1gx4              0.498669       0.164218
                         44       1    1gx3y             0.498669       0.434479
                         44       1    1gx3z             0.498669       0.434479
                         44       1    1gx2y2            0.498669       0.560910
                         44       1    1gx2yz            0.498669       0.971524
                         44       1    1gx2z2            0.498669       0.560910
                         44       1    1gxy3             0.498669       0.434479
                         44       1    1gxy2z            0.498669       0.971524
                         44       1    1gxyz2            0.498669       0.971524
                         44       1    1gxz3             0.498669       0.434479
                         44       1    1gy4              0.498669       0.164218
                         44       1    1gy3z             0.498669       0.434479
                         44       1    1gy2z2            0.498669       0.560910
                         44       1    1gyz3             0.498669       0.434479
                         44       1    1gz4              0.498669       0.164218

                         45       1    1hx5              4.059470      70.448136
                         45       1    1hx4y             4.059470     211.344409
                         45       1    1hx4z             4.059470     211.344409
                         45       1    1hx3y2            4.059470     322.833918
                         45       1    1hx3yz            4.059470     559.164748
                         45       1    1hx3z2            4.059470     322.833918
                         45       1    1hx2y3            4.059470     322.833918
                         45       1    1hx2y2z           4.059470     721.878586
                         45       1    1hx2yz2           4.059470     721.878586
                         45       1    1hx2z3            4.059470     322.833918
                         45       1    1hxy4             4.059470     211.344409
                         45       1    1hxy3z            4.059470     559.164748
                         45       1    1hxy2z2           4.059470     721.878586
                         45       1    1hxyz3            4.059470     559.164748
                         45       1    1hxz4             4.059470     211.344409
                         45       1    1hy5              4.059470      70.448136
                         45       1    1hy4z             4.059470     211.344409
                         45       1    1hy3z2            4.059470     322.833918
                         45       1    1hy2z3            4.059470     322.833918
                         45       1    1hyz4             4.059470     211.344409
                         45       1    1hz5              4.059470      70.448136

                         46       1    1hx5              1.699700       4.159624
                         46       1    1hx4y             1.699700      12.478872
                         46       1    1hx4z             1.699700      12.478872
                         46       1    1hx3y2            1.699700      19.061791
                         46       1    1hx3yz            1.699700      33.015991
                         46       1    1hx3z2            1.699700      19.061791
                         46       1    1hx2y3            1.699700      19.061791
                         46       1    1hx2y2z           1.699700      42.623461
                         46       1    1hx2yz2           1.699700      42.623461
                         46       1    1hx2z3            1.699700      19.061791
                         46       1    1hxy4             1.699700      12.478872
                         46       1    1hxy3z            1.699700      33.015991
                         46       1    1hxy2z2           1.699700      42.623461
                         46       1    1hxyz3            1.699700      33.015991
                         46       1    1hxz4             1.699700      12.478872
                         46       1    1hy5              1.699700       4.159624
                         46       1    1hy4z             1.699700      12.478872
                         46       1    1hy3z2            1.699700      19.061791
                         46       1    1hy2z3            1.699700      19.061791
                         46       1    1hyz4             1.699700      12.478872
                         46       1    1hz5              1.699700       4.159624

                         47       1    1hx5              0.868258       0.468762
                         47       1    1hx4y             0.868258       1.406287
                         47       1    1hx4z             0.868258       1.406287
                         47       1    1hx3y2            0.868258       2.148139
                         47       1    1hx3yz            0.868258       3.720686
                         47       1    1hx3z2            0.868258       2.148139
                         47       1    1hx2y3            0.868258       2.148139
                         47       1    1hx2y2z           0.868258       4.803385
                         47       1    1hx2yz2           0.868258       4.803385
                         47       1    1hx2z3            0.868258       2.148139
                         47       1    1hxy4             0.868258       1.406287
                         47       1    1hxy3z            0.868258       3.720686
                         47       1    1hxy2z2           0.868258       4.803385
                         47       1    1hxyz3            0.868258       3.720686
                         47       1    1hxz4             0.868258       1.406287
                         47       1    1hy5              0.868258       0.468762
                         47       1    1hy4z             0.868258       1.406287
                         47       1    1hy3z2            0.868258       2.148139
                         47       1    1hy2z3            0.868258       2.148139
                         47       1    1hyz4             0.868258       1.406287
                         47       1    1hz5              0.868258       0.468762

                         48       1    1ix6              1.481330       1.952640
                         48       1    1ix5y             1.481330       6.476174
                         48       1    1ix5z             1.481330       6.476174
                         48       1    1ix4y2            1.481330      11.217062
                         48       1    1ix4yz            1.481330      19.428521
                         48       1    1ix4z2            1.481330      11.217062
                         48       1    1ix3y3            1.481330      13.272206
                         48       1    1ix3y2z           1.481330      29.677556
                         48       1    1ix3yz2           1.481330      29.677556
                         48       1    1ix3z3            1.481330      13.272206
                         48       1    1ix2y4            1.481330      11.217062
                         48       1    1ix2y3z           1.481330      29.677556
                         48       1    1ix2y2z2          1.481330      38.313560
                         48       1    1ix2yz3           1.481330      29.677556
                         48       1    1ix2z4            1.481330      11.217062
                         48       1    1ixy5             1.481330       6.476174
                         48       1    1ixy4z            1.481330      19.428521
                         48       1    1ixy3z2           1.481330      29.677556
                         48       1    1ixy2z3           1.481330      29.677556
                         48       1    1ixyz4            1.481330      19.428521
                         48       1    1ixz5             1.481330       6.476174
                         48       1    1iy6              1.481330       1.952640
                         48       1    1iy5z             1.481330       6.476174
                         48       1    1iy4z2            1.481330      11.217062
                         48       1    1iy3z3            1.481330      13.272206
                         48       1    1iy2z4            1.481330      11.217062
                         48       1    1iyz5             1.481330       6.476174
                         48       1    1iz6              1.481330       1.952640

     The atoms of this atomic kind are PAW atoms (GAPW):
       Hard Gaussian function radius:                                      1.512
       Rho0 radius:                                                        1.512
       Maximum GTO radius used for PAW projector construction:            24.566

     GAPW Soft Basis Set                                          def2-QZVP_soft

       Number of orbital shell sets:                                          22
       Number of orbital shells:                                              22
       Number of primitive Cartesian functions:                               15
       Number of Cartesian basis functions:                                   86
       Number of spherical basis functions:                                   70
       Norm type:                                                              2

       Normalised Cartesian orbitals:

                        Set   Shell   Orbital            Exponent    Coefficient

                          1       1    1s         

                          2       1    1s         

                          3       1    1s         

                          4       1    1s         

                          5       1    1s         

                          6       1    1s                2.119474       1.251933

                          7       1    1s                0.757224       0.578533

                          8       1    1s                0.337472       0.315565

                          9       1    1s                0.138608       0.161901

                         10       1    1px               2.845094       1.581259
                         10       1    1py               2.845094       1.581259
                         10       1    1pz               2.845094       1.581259

                         11       1    1px        
                         11       1    1py        
                         11       1    1pz        

                         12       1    1px               1.242110       1.869132
                         12       1    1py               1.242110       1.869132
                         12       1    1pz               1.242110       1.869132

                         13       1    1px               0.556697       0.685431
                         13       1    1py               0.556697       0.685431
                         13       1    1pz               0.556697       0.685431

                         14       1    1px               0.233878       0.231834
                         14       1    1py               0.233878       0.231834
                         14       1    1pz               0.233878       0.231834

                         15       1    1px               0.093164       0.073367
                         15       1    1py               0.093164       0.073367
                         15       1    1pz               0.093164       0.073367

                         16       1    1dx2       
                         16       1    1dxy       
                         16       1    1dxz       
                         16       1    1dy2       
                         16       1    1dyz       
                         16       1    1dz2       

                         17       1    1dx2              1.276000       2.521437
                         17       1    1dxy              1.276000       4.367257
                         17       1    1dxz              1.276000       4.367257
                         17       1    1dy2              1.276000       2.521437
                         17       1    1dyz              1.276000       4.367257
                         17       1    1dz2              1.276000       2.521437

                         18       1    1dx2              0.583000       0.640220
                         18       1    1dxy              0.583000       1.108894
                         18       1    1dxz              0.583000       1.108894
                         18       1    1dy2              0.583000       0.640220
                         18       1    1dyz              0.583000       1.108894
                         18       1    1dz2              0.583000       0.640220

                         19       1    1dx2              0.243000       0.138427
                         19       1    1dxy              0.243000       0.239762
                         19       1    1dxz              0.243000       0.239762
                         19       1    1dy2              0.243000       0.138427
                         19       1    1dyz              0.243000       0.239762
                         19       1    1dz2              0.243000       0.138427

                         20       1    1fx3              0.423000       0.212432
                         20       1    1fx2y             0.423000       0.475013
                         20       1    1fx2z             0.423000       0.475013
                         20       1    1fxy2             0.423000       0.475013
                         20       1    1fxyz             0.423000       0.822746
                         20       1    1fxz2             0.423000       0.475013
                         20       1    1fy3              0.423000       0.212432
                         20       1    1fy2z             0.423000       0.475013
                         20       1    1fyz2             0.423000       0.475013
                         20       1    1fz3              0.423000       0.212432

                         21       1    1fx3              1.089000       1.783476
                         21       1    1fx2y             1.089000       3.987973
                         21       1    1fx2z             1.089000       3.987973
                         21       1    1fxy2             1.089000       3.987973
                         21       1    1fxyz             1.089000       6.907371
                         21       1    1fxz2             1.089000       3.987973
                         21       1    1fy3              1.089000       1.783476
                         21       1    1fy2z             1.089000       3.987973
                         21       1    1fyz2             1.089000       3.987973
                         21       1    1fz3              1.089000       1.783476

                         22       1    1gx4              0.827000       0.660048
                         22       1    1gx3y             0.827000       1.746323
                         22       1    1gx3z             0.827000       1.746323
                         22       1    1gx2y2            0.827000       2.254493
                         22       1    1gx2yz            0.827000       3.904897
                         22       1    1gx2z2            0.827000       2.254493
                         22       1    1gxy3             0.827000       1.746323
                         22       1    1gxy2z            0.827000       3.904897
                         22       1    1gxyz2            0.827000       3.904897
                         22       1    1gxz3             0.827000       1.746323
                         22       1    1gy4              0.827000       0.660048
                         22       1    1gy3z             0.827000       1.746323
                         22       1    1gy2z2            0.827000       2.254493
                         22       1    1gyz3             0.827000       1.746323
                         22       1    1gz4              0.827000       0.660048

     AE Potential information for                                            ALL

       Description:                                       All-electron potential
                                          Krack, Parrinello, PCCP 2, 2105 (2000)

       Gaussian exponent of the core charge distribution:               2.974420
       Electronic configuration (s p d ...):                           6  11   0


 MOLECULE KIND INFORMATION


 All atoms are their own molecule, skipping detailed information


 TOTAL NUMBERS AND MAXIMUM NUMBERS

  Total number of            - Atomic kinds:                                   2
                             - Atoms:                                          2
                             - Shell sets:                                    32
                             - Shells:                                        32
                             - Primitive Cartesian functions:                 54
[...]
 z_value(n_level_gw) =  -4.6587827065922678     
 m_value(n_level_gw) =   1.2146483454969859     
 level_energ_GW =  0.18617677535801455     
 coeff_pade = ( -2.4735101830204075E-002, -4.0930129012241901E-014) ( -1.6456965085710886     , 0.10413159511869582     ) (  1.5831073516481984     ,-0.21367436975932941     ) ( 0.53816727646799578     ,  9.3174500335275814E-002) ( 0.22401682713413659     ,-0.53511552721071354     ) ( -8.1687912014964531E-002, -1.0224911580324099     ) ( -3.8003655058534109     ,  3.6878675877647518     ) (-0.30018053158523872     , -2.2165601349196731     )
 sigma_c_pade = (-0.97272833525875912     , -5.5720396330589637E-003)
 z_value(n_level_gw) =  0.95345817735026150     
 coeff_pade = ( -3.5057319029108906E-002, -5.7739910631997964E-014) ( -1.6390748271617537     ,  9.0874813470452301E-002) (  1.3827097266290838     ,-0.20994464105253113     ) ( 0.69159088695661697     ,  7.2715776019073322E-002) ( -9.5942333613689687E-002,-0.77707881770460407     ) ( 0.49489698022657691     , -1.0281777027399202     ) ( -4.3639299102126392     ,-0.20532183691376790     ) (-0.57778386110340652     ,-0.39101253768986127     )
 sigma_c_pade = ( -1.1719208079219521     , -8.8529045668999350E-004)
 
 
 n_level_gw =           2
 AFTER get_sigma_c_newton_pade
 z_value(n_level_gw) =  0.93857097813643742     
 m_value(n_level_gw) =  -6.5449521980246894E-002
 level_energ_GW =   7.6525529183332039E-002
 
 m_value(n_level_gw) =  -4.8813701277471942E-002
 level_energ_GW =  0.19358119347117295     
 
 
 vec_gw_energ(n_level_gw) =  -12.251393340726580     
 Eigenval_scf(n_level_gw_ref) =  -250.02321308221218     
 nparam_pade =           8
 level_energ_GW =  0.18617677535801455     
 
 n_level_gw =          11
 AFTER get_sigma_c_newton_pade
 vec_gw_energ(n_level_gw) =  -1.1224277056367618     
 Eigenval_scf(n_level_gw_ref) =   2.3849249489934685     
 nparam_pade =           8
 level_energ_GW =  0.19358119347117295     
 
 n_level_gw =          10
 AFTER get_sigma_c_newton_pade
 vec_gw_energ(n_level_gw) =  -1.3806488789610147     
 Eigenval_scf(n_level_gw_ref) = -0.86901590213556634     
 nparam_pade =           8
 
 level_energ_GW =   7.6525529183332039E-002
 
  
  GW quasiparticle energies
  -------------------------
   
  The GW quasiparticle energies are calculated according to: 
  E_GW = E_SCF + Z * ( Sigc(E_SCF) + Sigx - vxc )
   
  The energy unit of the following table is eV.  Sigc_fit is a very conservative
  estimate of the statistical error of the fitting.
   
            MO      E_SCF       Sigc   Sigc_fit   Sigx-vxc          Z       E_GW
     1 ( occ )  -2739.560     -1.039      0.000   -113.361      1.000  -2853.960
     2 ( occ )   -250.027    -12.252      0.000    -37.285      1.000   -299.563
     3 ( occ )   -190.801     -0.886      0.000    -27.767      1.000   -219.454
     4 ( occ )   -190.530     -0.960      0.000    -28.001      1.000   -219.491
     5 ( occ )   -190.530     -0.960      0.000    -28.001      1.000   -219.491
     6 ( occ )    -21.093      5.851      0.000     -9.180      1.000    -24.422
     7 ( occ )    -11.764      0.673      0.000     -5.112      1.000    -16.203
     8 ( occ )     -8.020      0.650      0.000     -4.847      1.000    -12.217
     9 ( occ )     -8.020      0.650      0.000     -4.847      1.000    -12.217
    10 ( vir )     -0.869     -1.381      0.000      4.316      1.000      2.067
    11 ( vir )      2.385     -1.122      0.000      3.996      1.000      5.259
    12 ( vir )      4.316     -1.094      0.000      3.617      1.000      6.839
    13 ( vir )      4.529     -0.684      0.000      3.378      1.000      7.223
    14 ( vir )      4.529     -0.684      0.000      3.378      1.000      7.223
    15 ( vir )      6.256     -2.068      0.000      5.865      1.000     10.053
    16 ( vir )      6.256     -2.068      0.000      5.865      1.000     10.053
    17 ( vir )      7.705     -2.047      0.000      5.970      1.000     11.628
    18 ( vir )      7.705     -2.047      0.000      5.970      1.000     11.628
    19 ( vir )      9.411     -1.580      0.000      4.261      1.000     12.092
   
  GW HOMO-LUMO gap (eV)                                                    14.28
  

  Total RI-RPA Time=                                                  331.340758
  RI-RPA energy  =                                             -0.68267103365470

  Total EXX Time=                                                      23.863869
  EXX energy  =                                               -27.85213237819898

 ENERGY| Total FORCE_EVAL ( QS ) energy (a.u.):             -460.782973379956786


 -------------------------------------------------------------------------------
 -                                                                             -
 -                                DBCSR STATISTICS                             -
 -                                                                             -
 -------------------------------------------------------------------------------
 COUNTER                                    TOTAL       BLAS       SMM       ACC
 flops    30 x     9 x    30                16200     100.0%      0.0%      0.0%
 flops    30 x    30 x     9                32400     100.0%      0.0%      0.0%
 flops    70 x     9 x    30                37800     100.0%      0.0%      0.0%
 flops    30 x     9 x    70                37800     100.0%      0.0%      0.0%
 flops    30 x    30 x    30                54000     100.0%      0.0%      0.0%
 flops    70 x    30 x     9                75600     100.0%      0.0%      0.0%
 flops    70 x     9 x    70                88200     100.0%      0.0%      0.0%
 flops    70 x    30 x    30               126000     100.0%      0.0%      0.0%
 flops    30 x    30 x    70               126000     100.0%      0.0%      0.0%
 flops    70 x    70 x     9               176400     100.0%      0.0%      0.0%
 flops    70 x    30 x    70               294000     100.0%      0.0%      0.0%
 flops   100 x   100 x    30               600000     100.0%      0.0%      0.0%
 flops   100 x   100 x    70              1400000     100.0%      0.0%      0.0%
 flops    91 x    91 x    91             21099988     100.0%      0.0%      0.0%
 flops   230 x    91 x    91             53329640     100.0%      0.0%      0.0%
 flops    91 x   230 x    91             53329640     100.0%      0.0%      0.0%
 flops    91 x    91 x   230             53329640     100.0%      0.0%      0.0%
 flops   230 x   230 x    91            134789200     100.0%      0.0%      0.0%
 flops   230 x    91 x   230            134789200     100.0%      0.0%      0.0%
 flops    91 x   230 x   230            134789200     100.0%      0.0%      0.0%
 flops    30 x   420 x    30            197316000     100.0%      0.0%      0.0%
 flops    30 x   390 x    30            305370000     100.0%      0.0%      0.0%
 flops   230 x   230 x   230            340676000     100.0%      0.0%      0.0%
 flops    70 x   420 x    30            444528000     100.0%      0.0%      0.0%
 flops    30 x   420 x    70            460404000     100.0%      0.0%      0.0%
 flops    30 x   980 x    30            460404000     100.0%      0.0%      0.0%
 flops    70 x   390 x    30            687960000     100.0%      0.0%      0.0%
 flops    30 x   390 x    70            712530000     100.0%      0.0%      0.0%
 flops    30 x   910 x    30            712530000     100.0%      0.0%      0.0%
 flops    91 x    91 x   400            741977600     100.0%      0.0%      0.0%
 flops   321 x   100 x    30           1024632000     100.0%      0.0%      0.0%
 flops    70 x   420 x    70           1037232000     100.0%      0.0%      0.0%
 flops    70 x   980 x    30           1037232000     100.0%      0.0%      0.0%
 flops    30 x   980 x    70           1074276000     100.0%      0.0%      0.0%
 flops   321 x   100 x    91           1554025200     100.0%      0.0%      0.0%
 flops    91 x    91 x   425           1576702400     100.0%      0.0%      0.0%
 flops    70 x   390 x    70           1605240000     100.0%      0.0%      0.0%
 flops    70 x   910 x    30           1605240000     100.0%      0.0%      0.0%
 flops    30 x   910 x    70           1662570000     100.0%      0.0%      0.0%
 flops   230 x    91 x   400           1875328000     100.0%      0.0%      0.0%
 flops    91 x   230 x   400           1875328000     100.0%      0.0%      0.0%
 flops   321 x   100 x    70           2390808000     100.0%      0.0%      0.0%
 flops    70 x   980 x    70           2420208000     100.0%      0.0%      0.0%
 flops    70 x   910 x    70           3745560000     100.0%      0.0%      0.0%
 flops   321 x   100 x   230           3927756000     100.0%      0.0%      0.0%
 flops   230 x    91 x   425           3985072000     100.0%      0.0%      0.0%
 flops    91 x   230 x   425           3985072000     100.0%      0.0%      0.0%
 flops   230 x   230 x   400           4739840000     100.0%      0.0%      0.0%
 flops   230 x   230 x   425          10072160000     100.0%      0.0%      0.0%
 flops inhomo. stacks                           0       0.0%      0.0%      0.0%
 flops total                        56.846498E+09     100.0%      0.0%      0.0%
 flops max/rank                     11.788406E+09     100.0%      0.0%      0.0%
 matmuls inhomo. stacks                         0       0.0%      0.0%      0.0%
 matmuls total                               8540     100.0%      0.0%      0.0%
 number of processed stacks                  8540     100.0%      0.0%      0.0%
 average stack size                                     1.0       0.0       0.0
 marketing flops                    57.294062E+09
 -------------------------------------------------------------------------------
 # multiplications                            860
 max memory usage/rank             619.212800E+06
 # max total images/rank                        3
 # max 3D layers                                1
 # MPI messages exchanged                  372552
 MPI messages size (bytes):
  total size                         2.206041E+09
  min size                           0.000000E+00
  max size                         590.640000E+03
  average size                       5.921431E+03
 MPI breakdown and total messages size (bytes):
             size <=      128              359496                        0
       128 < size <=     8192                  25                   158400
      8192 < size <=    32768                1617                 38786400
     32768 < size <=   131072                5072                353404800
    131072 < size <=  4194304                6342               1813674576
   4194304 < size <= 16777216                   0                        0
  16777216 < size                               0                        0
 -------------------------------------------------------------------------------

 *** WARNING in dbcsr_mm.F:278 :: Using a non-square number of MPI ranks ***
 *** might lead to poor performance. Used ranks: 24 Suggested: 25 49     ***

 -------------------------------------------------------------------------------
 -                                                                             -
 -                      DBCSR MESSAGE PASSING PERFORMANCE                      -
 -                                                                             -
 -------------------------------------------------------------------------------

 ROUTINE             CALLS      AVE VOLUME [Bytes]
 MP_Group               26
 MP_Bcast               50                     12.
 MP_Allreduce         4933                      8.
 MP_Alltoall          2512                  36739.
 MP_Wait             46784
 MP_ISend            34486                  14278.
 MP_IRecv            34486                     62.
 MP_Memory           66220
 -------------------------------------------------------------------------------


 MEMORY| Estimated peak process memory [MiB]                                 591

 -------------------------------------------------------------------------------
 ----                             MULTIGRID INFO                            ----
 -------------------------------------------------------------------------------
 count for grid        1:         239459          cutoff [a.u.]          200.00
 count for grid        2:          36554          cutoff [a.u.]           66.67
 count for grid        3:          14109          cutoff [a.u.]           22.22
 count for grid        4:           2121          cutoff [a.u.]            7.41
 total gridlevel count  :         292243

 -------------------------------------------------------------------------------
 -                                                                             -
 -                         MESSAGE PASSING PERFORMANCE                         -
 -                                                                             -
 -------------------------------------------------------------------------------

 ROUTINE             CALLS      AVE VOLUME [Bytes]
 MP_Group                5
 MP_Bcast              187                3038964.
 MP_Allreduce          341                  31835.
 MP_Sync                72
 MP_Alltoall           123                3779455.
 MP_ISendRecv          276                  60709.
 MP_Wait               940
 MP_comm_split          10
 MP_ISend             3188                  76960.
 MP_IRecv             2548                 183928.
 MP_Recv                 4                   1600.
 -------------------------------------------------------------------------------


 -------------------------------------------------------------------------------
 -                                                                             -
 -                           R E F E R E N C E S                               -
 -                                                                             -
 -------------------------------------------------------------------------------
 
 CP2K version 7.0 (Development Version), the CP2K developers group (2018).
 CP2K is freely available from https://www.cp2k.org/ .

 Schuett, Ole; Messmer, Peter; Hutter, Juerg; VandeVondele, Joost. 
 Electronic Structure Calculations on Graphics Processing Units, John Wiley & Sons, Ltd, 173-190 (2016). 
 GPU-Accelerated Sparse Matrix-Matrix Multiplication for Linear Scaling Density Functional Theory.
 https://dx.doi.org/10.1002/9781118670712.ch8


 Del Ben, M; Schuett, O; Wentz, T; Messmer, P; Hutter, J;
 VandeVondele, J. 
 COMPUTER PHYSICS COMMUNICATIONS, 187, 120-129 (2015). 
 Enabling simulation at the fifth rung of DFT: Large scale RPA
 calculations with excellent time to solution.
 https://dx.doi.org/10.1016/j.cpc.2014.10.021


 Borstnik, U; VandeVondele, J; Weber, V; Hutter, J. 
 PARALLEL COMPUTING, 40 (5-6), 47-58 (2014). 
 Sparse matrix multiplication: The distributed block-compressed sparse
 row library.
 https://dx.doi.org/10.1016/j.parco.2014.03.012


 Hutter, J; Iannuzzi, M; Schiffmann, F; VandeVondele, J. 
 WILEY INTERDISCIPLINARY REVIEWS-COMPUTATIONAL MOLECULAR SCIENCE, 4 (1), 15-25 (2014). 
 CP2K: atomistic simulations of condensed matter systems.
 https://dx.doi.org/10.1002/wcms.1159


 Del Ben, M; Hutter, J; VandeVondele, J. 
 JOURNAL OF CHEMICAL THEORY AND COMPUTATION, 9 (6), 2654-2671 (2013). 
 Electron Correlation in the Condensed Phase from a Resolution of
 Identity Approach Based on the Gaussian and Plane Waves Scheme.
 https://dx.doi.org/10.1021/ct4002202


 Del Ben, M; Hutter, J; VandeVondele, J. 
 JOURNAL OF CHEMICAL THEORY AND COMPUTATION, 8 (11), 4177-4188 (2012). 
 Second-Order Moller-Plesset Perturbation Theory in the Condensed Phase:
 An Efficient and Massively Parallel Gaussian and Plane Waves Approach.
 https://dx.doi.org/10.1021/ct300531w


 Guidon, M; Hutter, J; VandeVondele, J. 
 JOURNAL OF CHEMICAL THEORY AND COMPUTATION, 5 (11), 3010-3021 (2009). 
 Robust Periodic Hartree-Fock Exchange for Large-Scale Simulations Using
 Gaussian Basis Sets.
 https://dx.doi.org/10.1021/ct900494g


 Guidon, M; Schiffmann, F; Hutter, J; VandeVondele, J. 
 JOURNAL OF CHEMICAL PHYSICS, 128 (21), 214104 (2008). 
 Ab initio molecular dynamics using hybrid density functionals.
 https://dx.doi.org/10.1063/1.2931945


 Frigo, M; Johnson, SG. 
 PROCEEDINGS OF THE IEEE, 93 (2), 216-231 (2005). 
 The design and implementation of FFTW3.
 https://dx.doi.org/10.1109/JPROC.2004.840301


 Lippert, G; Hutter, J; Parrinello, M. 
 THEORETICAL CHEMISTRY ACCOUNTS, 103 (2), 124-140 (1999). 
 The Gaussian and augmented-plane-wave density functional method for ab
 initio molecular dynamics simulations.
 https://dx.doi.org/10.1007/s002140050523


 Krack, M; Parrinello, M. 
 PHYSICAL CHEMISTRY CHEMICAL PHYSICS, 2 (10), 2105-2112 (2000). 
 All-electron ab-initio molecular dynamics.
 https://dx.doi.org/10.1039/b001167n


 Martyna, GJ; Tuckerman, ME. 
 JOURNAL OF CHEMICAL PHYSICS, 110 (6), 2810-2821 (1999). 
 A reciprocal space based method for treating long range interactions in
 ab initio and force-field-based calculations in clusters.
 https://dx.doi.org/10.1063/1.477923


 Perdew, JP; Burke, K; Ernzerhof, M. 
 PHYSICAL REVIEW LETTERS, 77 (18), 3865-3868 (1996). 
 Generalized gradient approximation made simple.
 https://dx.doi.org/10.1103/PhysRevLett.77.3865


 -------------------------------------------------------------------------------
 -                                                                             -
 -                                T I M I N G                                  -
 -                                                                             -
 -------------------------------------------------------------------------------
 SUBROUTINE                       CALLS  ASD         SELF TIME        TOTAL TIME
                                MAXIMUM       AVERAGE  MAXIMUM  AVERAGE  MAXIMUM
 CP2K                                 1  1.0    0.022    0.030  362.379  362.380
 qs_energies                          1  2.0    0.001    0.011  360.690  360.690
 mp2_main                             1  3.0    0.000    0.000  355.214  355.215
 mp2_gpw_main                         1  4.0    0.000    0.000  331.340  331.341
 rpa_ri_compute_en                    1  5.0    0.000    0.000  320.902  320.902
 rpa_num_int                          1  6.0    0.001    0.004  320.900  320.901
 get_l_sq_wghts_sin_tf_t_to_w         2  7.0  152.694  155.664  155.702  155.704
 get_l_sq_wghts_cos_tf_t_to_w         2  7.0  146.039  153.274  153.274  153.275
 mp_sum_dm                           20  7.7   11.285  116.376   11.285  116.376
 compute_vec_Sigma_x_minus_vxc_       1  4.0    0.000    0.000   23.864   23.864
 integrate_four_center                1  5.0    0.003    0.005   22.522   22.522
 mp2_ri_gpw_compute_in                1  5.0    0.000    0.000    8.816   10.430
 compute_low_sc_3c_integrals          1  6.0    3.454    4.087    8.600   10.214
 calc_screening_functions             1  6.0    5.607    5.811    9.648    9.923
 mp_sync                             72  8.7    7.378    8.074    7.378    8.074
 integrate_four_center_main           1  6.0    0.000    0.000    0.555    7.827
 integrate_four_center_bin          128  7.0    0.555    7.827    0.555    7.827
 -------------------------------------------------------------------------------

 The number of warnings for this run is : 1
 
 -------------------------------------------------------------------------------
  **** **** ******  **  PROGRAM ENDED AT                 2019-06-08 12:47:49.420
 ***** ** ***  *** **   PROGRAM RAN ON                                    tcopt4
 **    ****   ******    PROGRAM RAN BY                                   wilhelm
 ***** **    ** ** **   PROGRAM PROCESS ID                                144731
  **** **  *******  **  PROGRAM STOPPED IN /data/wilhelm/2_job_test/11_GW100/3_c
                                           alcs/53_HCl
