 DBCSR| CPU Multiplication driver                                           BLAS
 DBCSR| Multrec recursion limit                                              512
 DBCSR| Multiplication stack size                                           1000
 DBCSR| Maximum elements for images                                    UNLIMITED
 DBCSR| Multiplicative factor virtual images                                   1
 DBCSR| Use multiplication densification                                       T
 DBCSR| Multiplication size stacks                                             3
 DBCSR| Number of 3D layers                                               SINGLE
 DBCSR| Use MPI memory allocation                                              T
 DBCSR| Use RMA algorithm                                                      F
 DBCSR| Use Communication thread                                               T
 DBCSR| Communication thread load                                             87


  **** **** ******  **  PROGRAM STARTED AT               2019-05-31 17:16:50.015
 ***** ** ***  *** **   PROGRAM STARTED ON                                tcopt4
 **    ****   ******    PROGRAM STARTED BY                               wilhelm
 ***** **    ** ** **   PROGRAM PROCESS ID                                 83060
  **** **  *******  **  PROGRAM STARTED IN /data/wilhelm/2_job_test/11_GW100/3_c
                                           alcs/53_HCl

 CP2K| version string:                    CP2K version 7.0 (Development Version)
 CP2K| source code revision number:                                  git:026fb12
 CP2K| cp2kflags: libint fftw3 libxc pexsi elpa=201705 parallel mpi3 scalapack q
 CP2K|            uip libderiv_max_am1=5 libint_max_am=6
 CP2K| is freely available from                            https://www.cp2k.org/
 CP2K| Program compiled at                         Sat May 11 13:15:02 CEST 2019
 CP2K| Program compiled on                                                tcopt4
 CP2K| Program compiled for                            local_valgrind_March_2019
 CP2K| Data directory path              /data/wilhelm/1_git_repository/cp2k/data
 CP2K| Input file name                                                    GW.inp

 GLOBAL| Force Environment number                                              1
 GLOBAL| Basis set file name                              BASIS_def2_QZVP_RI_ALL
 GLOBAL| Potential file name                                           POTENTIAL
 GLOBAL| MM Potential file name                                     MM_POTENTIAL
 GLOBAL| Coordinate file name                                         53_HCl.xyz
 GLOBAL| Method name                                                        CP2K
 GLOBAL| Project name                                                   ALL_ELEC
 GLOBAL| Preferred FFT library                                             FFTW3
 GLOBAL| Preferred diagonalization lib.                                       SL
 GLOBAL| Run type                                                         ENERGY
 GLOBAL| All-to-all communication in single precision                          F
 GLOBAL| FFTs using library dependent lengths                                  F
 GLOBAL| Global print level                                               MEDIUM
 GLOBAL| MPI I/O enabled                                                       T
 GLOBAL| Total number of message passing processes                            40
 GLOBAL| Number of threads for this process                                    1
 GLOBAL| This output is from process                                           0
 GLOBAL| CPU model name :  Intel(R) Xeon(R) CPU E5-2697 v3 @ 2.60GHz

 MEMORY| system memory details [Kb]
 MEMORY|                        rank 0           min           max       average
 MEMORY| MemTotal            396954008     396954008     396954008     396954008
 MEMORY| MemFree             376680692     376680692     376680692     376680692
 MEMORY| Buffers                336936        336936        336936        336936
 MEMORY| Cached               16030640      16030640      16030640      16030640
 MEMORY| Slab                   602772        602772        602772        602772
 MEMORY| SReclaimable           464412        464412        464412        464412
 MEMORY| MemLikelyFree       393512680     393512680     393512680     393512680


 *** Fundamental physical constants (SI units) ***

 *** Literature: B. J. Mohr and B. N. Taylor,
 ***             CODATA recommended values of the fundamental physical
 ***             constants: 2006, Web Version 5.1
 ***             http://physics.nist.gov/constants

 Speed of light in vacuum [m/s]                             2.99792458000000E+08
 Magnetic constant or permeability of vacuum [N/A**2]       1.25663706143592E-06
 Electric constant or permittivity of vacuum [F/m]          8.85418781762039E-12
 Planck constant (h) [J*s]                                  6.62606896000000E-34
 Planck constant (h-bar) [J*s]                              1.05457162825177E-34
 Elementary charge [C]                                      1.60217648700000E-19
 Electron mass [kg]                                         9.10938215000000E-31
 Electron g factor [ ]                                     -2.00231930436220E+00
 Proton mass [kg]                                           1.67262163700000E-27
 Fine-structure constant                                    7.29735253760000E-03
 Rydberg constant [1/m]                                     1.09737315685270E+07
 Avogadro constant [1/mol]                                  6.02214179000000E+23
 Boltzmann constant [J/K]                                   1.38065040000000E-23
 Atomic mass unit [kg]                                      1.66053878200000E-27
 Bohr radius [m]                                            5.29177208590000E-11

 *** Conversion factors ***

 [u] -> [a.u.]                                              1.82288848426455E+03
 [Angstrom] -> [Bohr] = [a.u.]                              1.88972613288564E+00
 [a.u.] = [Bohr] -> [Angstrom]                              5.29177208590000E-01
 [a.u.] -> [s]                                              2.41888432650478E-17
 [a.u.] -> [fs]                                             2.41888432650478E-02
 [a.u.] -> [J]                                              4.35974393937059E-18
 [a.u.] -> [N]                                              8.23872205491840E-08
 [a.u.] -> [K]                                              3.15774647902944E+05
 [a.u.] -> [kJ/mol]                                         2.62549961709828E+03
 [a.u.] -> [kcal/mol]                                       6.27509468713739E+02
 [a.u.] -> [Pa]                                             2.94210107994716E+13
 [a.u.] -> [bar]                                            2.94210107994716E+08
 [a.u.] -> [atm]                                            2.90362800883016E+08
 [a.u.] -> [eV]                                             2.72113838565563E+01
 [a.u.] -> [Hz]                                             6.57968392072181E+15
 [a.u.] -> [1/cm] (wave numbers)                            2.19474631370540E+05
 [a.u./Bohr**2] -> [1/cm]                                   5.14048714338585E+03
 

 CELL_TOP| Volume [angstrom^3]:                                         4096.000
 CELL_TOP| Vector a [angstrom    16.000     0.000     0.000    |a| =      16.000
 CELL_TOP| Vector b [angstrom     0.000    16.000     0.000    |b| =      16.000
 CELL_TOP| Vector c [angstrom     0.000     0.000    16.000    |c| =      16.000
 CELL_TOP| Angle (b,c), alpha [degree]:                                   90.000
 CELL_TOP| Angle (a,c), beta  [degree]:                                   90.000
 CELL_TOP| Angle (a,b), gamma [degree]:                                   90.000
 CELL_TOP| Numerically orthorhombic:                                         YES

 GENERATE|  Preliminary Number of Bonds generated:                             0
 GENERATE|  Achieved consistency in connectivity generation.

 CELL| Volume [angstrom^3]:                                             4096.000
 CELL| Vector a [angstrom]:      16.000     0.000     0.000    |a| =      16.000
 CELL| Vector b [angstrom]:       0.000    16.000     0.000    |b| =      16.000
 CELL| Vector c [angstrom]:       0.000     0.000    16.000    |c| =      16.000
 CELL| Angle (b,c), alpha [degree]:                                       90.000
 CELL| Angle (a,c), beta  [degree]:                                       90.000
 CELL| Angle (a,b), gamma [degree]:                                       90.000
 CELL| Numerically orthorhombic:                                             YES

 CELL_REF| Volume [angstrom^3]:                                         4096.000
 CELL_REF| Vector a [angstrom    16.000     0.000     0.000    |a| =      16.000
 CELL_REF| Vector b [angstrom     0.000    16.000     0.000    |b| =      16.000
 CELL_REF| Vector c [angstrom     0.000     0.000    16.000    |c| =      16.000
 CELL_REF| Angle (b,c), alpha [degree]:                                   90.000
 CELL_REF| Angle (a,c), beta  [degree]:                                   90.000
 CELL_REF| Angle (a,b), gamma [degree]:                                   90.000
 CELL_REF| Numerically orthorhombic:                                         YES

 *******************************************************************************
 *******************************************************************************
 **                                                                           **
 **     #####                         ##              ##                      **
 **    ##   ##            ##          ##              ##                      **
 **   ##     ##                       ##            ######                    **
 **   ##     ##  ##   ##  ##   #####  ##  ##   ####   ##    #####    #####    **
 **   ##     ##  ##   ##  ##  ##      ## ##   ##      ##   ##   ##  ##   ##   **
 **   ##  ## ##  ##   ##  ##  ##      ####     ###    ##   ######   ######    **
 **    ##  ###   ##   ##  ##  ##      ## ##      ##   ##   ##       ##        **
 **     #######   #####   ##   #####  ##  ##  ####    ##    #####   ##        **
 **           ##                                                    ##        **
 **                                                                           **
 **                                                ... make the atoms dance   **
 **                                                                           **
 **            Copyright (C) by CP2K developers group (2000 - 2019)           **
 **                                                                           **
 *******************************************************************************

 DFT| Spin restricted Kohn-Sham (RKS) calculation                            RKS
 DFT| Multiplicity                                                             1
 DFT| Number of spin states                                                    1
 DFT| Charge                                                                   0
 DFT| Self-interaction correction (SIC)                                       NO
 DFT| Cutoffs: density                                              1.000000E-10
 DFT|          gradient                                             1.000000E-10
 DFT|          tau                                                  1.000000E-10
 DFT|          cutoff_smoothing_range                               0.000000E+00
 DFT| XC density smoothing                                                  NONE
 DFT| XC derivatives                                                          PW
 FUNCTIONAL| ROUTINE=NEW
 FUNCTIONAL| PBE:
 FUNCTIONAL| J.P.Perdew, K.Burke, M.Ernzerhof, Phys. Rev. Letter, vol. 77, n 18,
 FUNCTIONAL|  pp. 3865-3868, (1996){spin unpolarized}                           

 QS| Method:                                                                GAPW
 QS| Density plane wave grid type                        NON-SPHERICAL FULLSPACE
 QS| Number of grid levels:                                                    4
 QS| Density cutoff [a.u.]:                                                200.0
 QS| Multi grid cutoff [a.u.]: 1) grid level                               200.0
 QS|                           2) grid level                                66.7
 QS|                           3) grid level                                22.2
 QS|                           4) grid level                                 7.4
 QS| Grid level progression factor:                                          3.0
 QS| Relative density cutoff [a.u.]:                                        25.0
 QS| Consistent realspace mapping and integration 
 QS| Interaction thresholds: eps_pgf_orb:                                1.0E-05
 QS|                         eps_filter_matrix:                          0.0E+00
 QS|                         eps_core_charge:                            1.0E-12
 QS|                         eps_rho_gspace:                             1.0E-10
 QS|                         eps_rho_rspace:                             1.0E-10
 QS|                         eps_gvg_rspace:                             1.0E-05
 QS|                         eps_ppl:                                    1.0E-02
 QS|                         eps_ppnl:                                   1.0E-07
 QS| GAPW|                   eps_fit:                                    1.0E-04
 QS| GAPW|                   eps_iso:                                    1.0E-12
 QS| GAPW|                   eps_svd:                                    1.0E-08
 QS| GAPW|                   eps_cpc:                                    1.0E-10
 QS| GAPW|   atom-r-grid: quadrature:                 GC_LOG                        
 QS| GAPW|      atom-s-grid:  max l :                                          8
 QS| GAPW|      max_l_rho0 :                                                   2


 ATOMIC KIND INFORMATION

  1. Atomic kind: H                                     Number of atoms:       1

     Orbital Basis Set                                                 def2-QZVP

       Number of orbital shell sets:                                          10
       Number of orbital shells:                                              10
       Number of primitive Cartesian functions:                               13
       Number of Cartesian basis functions:                                   35
       Number of spherical basis functions:                                   30
       Norm type:                                                              2

       Normalised Cartesian orbitals:

                        Set   Shell   Orbital            Exponent    Coefficient

                          1       1    1s              190.691690       0.195396
                                                        28.605532       0.363661
                                                         6.509594       0.612837
                                                         1.841246       0.914889

                          2       1    1s                0.598537       0.484985

                          3       1    1s                0.213976       0.224225

                          4       1    1s                0.080316       0.107526

                          5       1    1px               2.292000       4.019836
                          5       1    1py               2.292000       4.019836
                          5       1    1pz               2.292000       4.019836

                          6       1    1px               0.838000       1.142865
                          6       1    1py               0.838000       1.142865
                          6       1    1pz               0.838000       1.142865

                          7       1    1px               0.292000       0.305963
                          7       1    1py               0.292000       0.305963
                          7       1    1pz               0.292000       0.305963

                          8       1    1dx2              2.062000       5.840024
                          8       1    1dxy              2.062000      10.115218
                          8       1    1dxz              2.062000      10.115218
                          8       1    1dy2              2.062000       5.840024
                          8       1    1dyz              2.062000      10.115218
                          8       1    1dz2              2.062000       5.840024

                          9       1    1dx2              0.662000       0.799670
                          9       1    1dxy              0.662000       1.385069
                          9       1    1dxz              0.662000       1.385069
                          9       1    1dy2              0.662000       0.799670
                          9       1    1dyz              0.662000       1.385069
                          9       1    1dz2              0.662000       0.799670

                         10       1    1fx3              1.397000       3.123535
                         10       1    1fx2y             1.397000       6.984436
                         10       1    1fx2z             1.397000       6.984436
                         10       1    1fxy2             1.397000       6.984436
                         10       1    1fxyz             1.397000      12.097399
                         10       1    1fxz2             1.397000       6.984436
                         10       1    1fy3              1.397000       3.123535
                         10       1    1fy2z             1.397000       6.984436
                         10       1    1fyz2             1.397000       6.984436
                         10       1    1fz3              1.397000       3.123535

     RI Auxiliary Basis Set                                                RI-5Z

       Number of orbital shell sets:                                          21
       Number of orbital shells:                                              21
       Number of primitive Cartesian functions:                               21
       Number of Cartesian basis functions:                                  126
       Number of spherical basis functions:                                   91
       Norm type:                                                              2

       Normalised Cartesian orbitals:

                        Set   Shell   Orbital            Exponent    Coefficient

                          1       1    1s               23.321500       7.563581

                          2       1    1s                4.922970       2.355486

                          3       1    1s                1.775100       1.096042

                          4       1    1s                0.994218       0.709613

                          5       1    1s                0.506054       0.427620

                          6       1    1s                0.236911       0.242019

                          7       1    1px               5.974580      13.314483
                          7       1    1py               5.974580      13.314483
                          7       1    1pz               5.974580      13.314483

                          8       1    1px               2.052170       3.501118
                          8       1    1py               2.052170       3.501118
                          8       1    1pz               2.052170       3.501118

                          9       1    1px               1.248660       1.881462
                          9       1    1py               1.248660       1.881462
                          9       1    1pz               1.248660       1.881462

                         10       1    1px               0.805545       1.087808
                         10       1    1py               0.805545       1.087808
                         10       1    1pz               0.805545       1.087808

                         11       1    1px               0.347892       0.380843
                         11       1    1py               0.347892       0.380843
                         11       1    1pz               0.347892       0.380843

                         12       1    1dx2              3.858160      17.481346
                         12       1    1dxy              3.858160      30.278579
                         12       1    1dxz              3.858160      30.278579
                         12       1    1dy2              3.858160      17.481346
                         12       1    1dyz              3.858160      30.278579
                         12       1    1dz2              3.858160      17.481346

                         13       1    1dx2              1.710630       4.211459
                         13       1    1dxy              1.710630       7.294461
                         13       1    1dxz              1.710630       7.294461
                         13       1    1dy2              1.710630       4.211459
                         13       1    1dyz              1.710630       7.294461
                         13       1    1dz2              1.710630       4.211459

                         14       1    1dx2              0.979237       1.586584
                         14       1    1dxy              0.979237       2.748044
                         14       1    1dxz              0.979237       2.748044
                         14       1    1dy2              0.979237       1.586584
                         14       1    1dyz              0.979237       2.748044
                         14       1    1dz2              0.979237       1.586584

                         15       1    1dx2              0.625366       0.723843
                         15       1    1dxy              0.625366       1.253733
                         15       1    1dxz              0.625366       1.253733
                         15       1    1dy2              0.625366       0.723843
                         15       1    1dyz              0.625366       1.253733
                         15       1    1dz2              0.625366       0.723843

                         16       1    1fx3              3.101510      18.792914
                         16       1    1fx2y             3.101510      42.022232
                         16       1    1fx2z             3.101510      42.022232
                         16       1    1fxy2             3.101510      42.022232
                         16       1    1fxyz             3.101510      72.784641
                         16       1    1fxz2             3.101510      42.022232
                         16       1    1fy3              3.101510      18.792914
                         16       1    1fy2z             3.101510      42.022232
                         16       1    1fyz2             3.101510      42.022232
                         16       1    1fz3              3.101510      18.792914

                         17       1    1fx3              1.198110       2.210915
                         17       1    1fx2y             1.198110       4.943756
                         17       1    1fx2z             1.198110       4.943756
                         17       1    1fxy2             1.198110       4.943756
                         17       1    1fxyz             1.198110       8.562836
                         17       1    1fxz2             1.198110       4.943756
                         17       1    1fy3              1.198110       2.210915
                         17       1    1fy2z             1.198110       4.943756
                         17       1    1fyz2             1.198110       4.943756
                         17       1    1fz3              1.198110       2.210915

                         18       1    1fx3              0.572873       0.420326
                         18       1    1fx2y             0.572873       0.939876
                         18       1    1fx2z             0.572873       0.939876
                         18       1    1fxy2             0.572873       0.939876
                         18       1    1fxyz             0.572873       1.627914
                         18       1    1fxz2             0.572873       0.939876
                         18       1    1fy3              0.572873       0.420326
                         18       1    1fy2z             0.572873       0.939876
                         18       1    1fyz2             0.572873       0.939876
                         18       1    1fz3              0.572873       0.420326

                         19       1    1gx4              2.987800      22.576266
                         19       1    1gx3y             2.987800      59.731185
                         19       1    1gx3z             2.987800      59.731185
                         19       1    1gx2y2            2.987800      77.112629
                         19       1    1gx2yz            2.987800     133.562991
                         19       1    1gx2z2            2.987800      77.112629
                         19       1    1gxy3             2.987800      59.731185
                         19       1    1gxy2z            2.987800     133.562991
                         19       1    1gxyz2            2.987800     133.562991
                         19       1    1gxz3             2.987800      59.731185
                         19       1    1gy4              2.987800      22.576266
                         19       1    1gy3z             2.987800      59.731185
                         19       1    1gy2z2            2.987800      77.112629
                         19       1    1gyz3             2.987800      59.731185
                         19       1    1gz4              2.987800      22.576266

                         20       1    1gx4              1.231920       1.974865
                         20       1    1gx3y             1.231920       5.225001
                         20       1    1gx3z             1.231920       5.225001
                         20       1    1gx2y2            1.231920       6.745447
                         20       1    1gx2yz            1.231920      11.683456
                         20       1    1gx2z2            1.231920       6.745447
                         20       1    1gxy3             1.231920       5.225001
                         20       1    1gxy2z            1.231920      11.683456
                         20       1    1gxyz2            1.231920      11.683456
                         20       1    1gxz3             1.231920       5.225001
                         20       1    1gy4              1.231920       1.974865
                         20       1    1gy3z             1.231920       5.225001
                         20       1    1gy2z2            1.231920       6.745447
                         20       1    1gyz3             1.231920       5.225001
                         20       1    1gz4              1.231920       1.974865

                         21       1    1hx5              3.247390      34.106027
                         21       1    1hx4y             3.247390     102.318080
                         21       1    1hx4z             3.247390     102.318080
                         21       1    1hx3y2            3.247390     156.293448
                         21       1    1hx3yz            3.247390     270.708193
                         21       1    1hx3z2            3.247390     156.293448
                         21       1    1hx2y3            3.247390     156.293448
                         21       1    1hx2y2z           3.247390     349.482775
                         21       1    1hx2yz2           3.247390     349.482775
                         21       1    1hx2z3            3.247390     156.293448
                         21       1    1hxy4             3.247390     102.318080
                         21       1    1hxy3z            3.247390     270.708193
                         21       1    1hxy2z2           3.247390     349.482775
                         21       1    1hxyz3            3.247390     270.708193
                         21       1    1hxz4             3.247390     102.318080
                         21       1    1hy5              3.247390      34.106027
                         21       1    1hy4z             3.247390     102.318080
                         21       1    1hy3z2            3.247390     156.293448
                         21       1    1hy2z3            3.247390     156.293448
                         21       1    1hyz4             3.247390     102.318080
                         21       1    1hz5              3.247390      34.106027

     The atoms of this atomic kind are PAW atoms (GAPW):
       Hard Gaussian function radius:                                      1.200
       Rho0 radius:                                                        1.200
       Maximum GTO radius used for PAW projector construction:            24.566

     GAPW Soft Basis Set                                          def2-QZVP_soft

       Number of orbital shell sets:                                          10
       Number of orbital shells:                                              10
       Number of primitive Cartesian functions:                               10
       Number of Cartesian basis functions:                                   35
       Number of spherical basis functions:                                   30
       Norm type:                                                              2

       Normalised Cartesian orbitals:

                        Set   Shell   Orbital            Exponent    Coefficient

                          1       1    1s                1.841246       0.914889

                          2       1    1s                0.598537       0.484985

                          3       1    1s                0.213976       0.224225

                          4       1    1s                0.080316       0.107526

                          5       1    1px               2.292000       4.019836
                          5       1    1py               2.292000       4.019836
                          5       1    1pz               2.292000       4.019836

                          6       1    1px               0.838000       1.142865
                          6       1    1py               0.838000       1.142865
                          6       1    1pz               0.838000       1.142865

                          7       1    1px               0.292000       0.305963
                          7       1    1py               0.292000       0.305963
                          7       1    1pz               0.292000       0.305963

                          8       1    1dx2              2.062000       5.840024
                          8       1    1dxy              2.062000      10.115218
                          8       1    1dxz              2.062000      10.115218
                          8       1    1dy2              2.062000       5.840024
                          8       1    1dyz              2.062000      10.115218
                          8       1    1dz2              2.062000       5.840024

                          9       1    1dx2              0.662000       0.799670
                          9       1    1dxy              0.662000       1.385069
                          9       1    1dxz              0.662000       1.385069
                          9       1    1dy2              0.662000       0.799670
                          9       1    1dyz              0.662000       1.385069
                          9       1    1dz2              0.662000       0.799670

                         10       1    1fx3              1.397000       3.123535
                         10       1    1fx2y             1.397000       6.984436
                         10       1    1fx2z             1.397000       6.984436
                         10       1    1fxy2             1.397000       6.984436
                         10       1    1fxyz             1.397000      12.097399
                         10       1    1fxz2             1.397000       6.984436
                         10       1    1fy3              1.397000       3.123535
                         10       1    1fy2z             1.397000       6.984436
                         10       1    1fyz2             1.397000       6.984436
                         10       1    1fz3              1.397000       3.123535

     AE Potential information for                                            ALL

       Description:                                       All-electron potential
                                          Krack, Parrinello, PCCP 2, 2105 (2000)

       Gaussian exponent of the core charge distribution:              12.500000
       Electronic configuration (s p d ...):                           1   0   0

  2. Atomic kind: Cl                                    Number of atoms:       1

     Orbital Basis Set                                                 def2-QZVP

       Number of orbital shell sets:                                          22
       Number of orbital shells:                                              22
       Number of primitive Cartesian functions:                               41
       Number of Cartesian basis functions:                                   86
       Number of spherical basis functions:                                   70
       Norm type:                                                              2

       Normalised Cartesian orbitals:

                        Set   Shell   Orbital            Exponent    Coefficient

                          1       1    1s          1467459.009500       0.425773
                                                    219756.164330       0.796829
                                                     50010.770301       1.380227
                                                     14164.823918       2.257494
                                                      4620.746552       3.521527
                                                      1667.899163       5.224536
                                                       650.291993       7.246291
                                                       269.380374       8.968589
                                                       117.067521       9.076269
                                                        52.811767       6.264795

                          2       1    1s              461.427700       1.611036
                                                       142.126654       6.095348
                                                        54.437839      11.498871

                          3       1    1s               24.160770       7.766819

                          4       1    1s                9.708354       3.919849

                          5       1    1s                4.564070       2.225483

                          6       1    1s                2.119474       1.251933

                          7       1    1s                0.757224       0.578533

                          8       1    1s                0.337472       0.315565

                          9       1    1s                0.138608       0.161901

                         10       1    1px            2501.945789       6.358182
                                                       592.880593       9.140815
                                                       192.180892      12.125297
                                                        72.875710      14.188254
                                                        30.436358      13.984205
                                                        13.490179      10.535628
                                                         6.147807       5.502251
                                                         2.845094       1.581259
                         10       1    1py            2501.945789       6.358182
                                                       592.880593       9.140815
                                                       192.180892      12.125297
                                                        72.875710      14.188254
                                                        30.436358      13.984205
                                                        13.490179      10.535628
                                                         6.147807       5.502251
                                                         2.845094       1.581259
                         10       1    1pz            2501.945789       6.358182
                                                       592.880593       9.140815
                                                       192.180892      12.125297
                                                        72.875710      14.188254
                                                        30.436358      13.984205
                                                        13.490179      10.535628
                                                         6.147807       5.502251
                                                         2.845094       1.581259

                         11       1    1px             105.393979     -25.961556
                                                         6.736974      15.579070
                         11       1    1py             105.393979     -25.961556
                                                         6.736974      15.579070
                         11       1    1pz             105.393979     -25.961556
                                                         6.736974      15.579070

                         12       1    1px               1.242110       1.869132
                         12       1    1py               1.242110       1.869132
                         12       1    1pz               1.242110       1.869132

                         13       1    1px               0.556697       0.685431
                         13       1    1py               0.556697       0.685431
                         13       1    1pz               0.556697       0.685431

                         14       1    1px               0.233878       0.231834
                         14       1    1py               0.233878       0.231834
                         14       1    1pz               0.233878       0.231834

                         15       1    1px               0.093164       0.073367
                         15       1    1py               0.093164       0.073367
                         15       1    1pz               0.093164       0.073367

                         16       1    1dx2              5.191000      29.383177
                         16       1    1dxy              5.191000      50.893156
                         16       1    1dxz              5.191000      50.893156
                         16       1    1dy2              5.191000      29.383177
                         16       1    1dyz              5.191000      50.893156
                         16       1    1dz2              5.191000      29.383177

                         17       1    1dx2              1.276000       2.521437
                         17       1    1dxy              1.276000       4.367257
                         17       1    1dxz              1.276000       4.367257
                         17       1    1dy2              1.276000       2.521437
                         17       1    1dyz              1.276000       4.367257
                         17       1    1dz2              1.276000       2.521437

                         18       1    1dx2              0.583000       0.640220
                         18       1    1dxy              0.583000       1.108894
                         18       1    1dxz              0.583000       1.108894
                         18       1    1dy2              0.583000       0.640220
                         18       1    1dyz              0.583000       1.108894
                         18       1    1dz2              0.583000       0.640220

                         19       1    1dx2              0.243000       0.138427
                         19       1    1dxy              0.243000       0.239762
                         19       1    1dxz              0.243000       0.239762
                         19       1    1dy2              0.243000       0.138427
                         19       1    1dyz              0.243000       0.239762
                         19       1    1dz2              0.243000       0.138427

                         20       1    1fx3              0.423000       0.212432
                         20       1    1fx2y             0.423000       0.475013
                         20       1    1fx2z             0.423000       0.475013
                         20       1    1fxy2             0.423000       0.475013
                         20       1    1fxyz             0.423000       0.822746
                         20       1    1fxz2             0.423000       0.475013
                         20       1    1fy3              0.423000       0.212432
                         20       1    1fy2z             0.423000       0.475013
                         20       1    1fyz2             0.423000       0.475013
                         20       1    1fz3              0.423000       0.212432

                         21       1    1fx3              1.089000       1.783476
                         21       1    1fx2y             1.089000       3.987973
                         21       1    1fx2z             1.089000       3.987973
                         21       1    1fxy2             1.089000       3.987973
                         21       1    1fxyz             1.089000       6.907371
                         21       1    1fxz2             1.089000       3.987973
                         21       1    1fy3              1.089000       1.783476
                         21       1    1fy2z             1.089000       3.987973
                         21       1    1fyz2             1.089000       3.987973
                         21       1    1fz3              1.089000       1.783476

                         22       1    1gx4              0.827000       0.660048
                         22       1    1gx3y             0.827000       1.746323
                         22       1    1gx3z             0.827000       1.746323
                         22       1    1gx2y2            0.827000       2.254493
                         22       1    1gx2yz            0.827000       3.904897
                         22       1    1gx2z2            0.827000       2.254493
                         22       1    1gxy3             0.827000       1.746323
                         22       1    1gxy2z            0.827000       3.904897
                         22       1    1gxyz2            0.827000       3.904897
                         22       1    1gxz3             0.827000       1.746323
                         22       1    1gy4              0.827000       0.660048
                         22       1    1gy3z             0.827000       1.746323
                         22       1    1gy2z2            0.827000       2.254493
                         22       1    1gyz3             0.827000       1.746323
                         22       1    1gz4              0.827000       0.660048

     RI Auxiliary Basis Set                                                RI-5Z

       Number of orbital shell sets:                                          48
       Number of orbital shells:                                              48
       Number of primitive Cartesian functions:                               48
       Number of Cartesian basis functions:                                  335
       Number of spherical basis functions:                                  230
       Norm type:                                                              2

       Normalised Cartesian orbitals:

                        Set   Shell   Orbital            Exponent    Coefficient

                          1       1    1s             1275.190000     152.086710

                          2       1    1s              308.271000      52.433590

                          3       1    1s              107.711000      23.828963

                          4       1    1s               34.462700      10.137295

                          5       1    1s               14.452900       5.282948

                          6       1    1s                7.544300       3.244325

                          7       1    1s                3.685440       1.895733

                          8       1    1s                1.789660       1.102778

                          9       1    1s                1.072910       0.751333

                         10       1    1s                0.736635       0.566695

                         11       1    1s                0.332604       0.312145

                         12       1    1s                0.183773       0.200042

                         13       1    1px             405.243000    2591.698576
                         13       1    1py             405.243000    2591.698576
                         13       1    1pz             405.243000    2591.698576

                         14       1    1px             117.714000     552.681891
                         14       1    1py             117.714000     552.681891
                         14       1    1pz             117.714000     552.681891

                         15       1    1px              37.138800     130.684753
                         15       1    1py              37.138800     130.684753
                         15       1    1pz              37.138800     130.684753

                         16       1    1px              19.320600      57.738547
                         16       1    1py              19.320600      57.738547
                         16       1    1pz              19.320600      57.738547

                         17       1    1px               8.503760      20.699213
                         17       1    1py               8.503760      20.699213
                         17       1    1pz               8.503760      20.699213

                         18       1    1px               4.262460       8.730025
                         18       1    1py               4.262460       8.730025
                         18       1    1pz               4.262460       8.730025

                         19       1    1px               1.929040       3.240534
                         19       1    1py               1.929040       3.240534
                         19       1    1pz               1.929040       3.240534

                         20       1    1px               1.246920       1.878185
                         20       1    1py               1.246920       1.878185
                         20       1    1pz               1.246920       1.878185

                         21       1    1px               0.739900       0.978152
                         21       1    1py               0.739900       0.978152
                         21       1    1pz               0.739900       0.978152

                         22       1    1px               0.495422       0.592460
                         22       1    1py               0.495422       0.592460
                         22       1    1pz               0.495422       0.592460

                         23       1    1px               0.264132       0.269908
                         23       1    1py               0.264132       0.269908
                         23       1    1pz               0.264132       0.269908

                         24       1    1dx2            118.091000    6962.879136
                         24       1    1dxy            118.091000   12060.060431
                         24       1    1dxz            118.091000   12060.060431
                         24       1    1dy2            118.091000    6962.879136
                         24       1    1dyz            118.091000   12060.060431
                         24       1    1dz2            118.091000    6962.879136

                         25       1    1dx2             39.157400    1008.866472
                         25       1    1dxy             39.157400    1747.407988
                         25       1    1dxz             39.157400    1747.407988
                         25       1    1dy2             39.157400    1008.866472
                         25       1    1dyz             39.157400    1747.407988
                         25       1    1dz2             39.157400    1008.866472

                         26       1    1dx2             13.190700     150.272040
                         26       1    1dxy             13.190700     260.278808
                         26       1    1dxz             13.190700     260.278808
                         26       1    1dy2             13.190700     150.272040
                         26       1    1dyz             13.190700     260.278808
                         26       1    1dz2             13.190700     150.272040

                         27       1    1dx2              6.218710      40.307419
                         27       1    1dxy              6.218710      69.814498
                         27       1    1dxz              6.218710      69.814498
                         27       1    1dy2              6.218710      40.307419
                         27       1    1dyz              6.218710      69.814498
                         27       1    1dz2              6.218710      40.307419

                         28       1    1dx2              2.507050       8.221380
                         28       1    1dxy              2.507050      14.239847
                         28       1    1dxz              2.507050      14.239847
                         28       1    1dy2              2.507050       8.221380
                         28       1    1dyz              2.507050      14.239847
                         28       1    1dz2              2.507050       8.221380

                         29       1    1dx2              1.522240       3.433641
                         29       1    1dxy              1.522240       5.947241
                         29       1    1dxz              1.522240       5.947241
                         29       1    1dy2              1.522240       3.433641
                         29       1    1dyz              1.522240       5.947241
                         29       1    1dz2              1.522240       3.433641

                         30       1    1dx2              0.872617       1.296734
                         30       1    1dxy              0.872617       2.246009
                         30       1    1dxz              0.872617       2.246009
                         30       1    1dy2              0.872617       1.296734
                         30       1    1dyz              0.872617       2.246009
                         30       1    1dz2              0.872617       1.296734

                         31       1    1dx2              0.431274       0.377770
                         31       1    1dxy              0.431274       0.654317
                         31       1    1dxz              0.431274       0.654317
                         31       1    1dy2              0.431274       0.377770
                         31       1    1dyz              0.431274       0.654317
                         31       1    1dz2              0.431274       0.377770

                         32       1    1dx2              0.231014       0.126700
                         32       1    1dxy              0.231014       0.219451
                         32       1    1dxz              0.231014       0.219451
                         32       1    1dy2              0.231014       0.126700
                         32       1    1dyz              0.231014       0.219451
                         32       1    1dz2              0.231014       0.126700

                         33       1    1fx3             21.558400    1474.319577
                         33       1    1fx2y            21.558400    3296.678795
                         33       1    1fx2z            21.558400    3296.678795
                         33       1    1fxy2            21.558400    3296.678795
                         33       1    1fxyz            21.558400    5710.015169
                         33       1    1fxz2            21.558400    3296.678795
                         33       1    1fy3             21.558400    1474.319577
                         33       1    1fy2z            21.558400    3296.678795
                         33       1    1fyz2            21.558400    3296.678795
                         33       1    1fz3             21.558400    1474.319577

                         34       1    1fx3             10.107900     268.189368
                         34       1    1fx2y            10.107900     599.689658
                         34       1    1fx2z            10.107900     599.689658
                         34       1    1fxy2            10.107900     599.689658
                         34       1    1fxyz            10.107900    1038.692957
                         34       1    1fxz2            10.107900     599.689658
                         34       1    1fy3             10.107900     268.189368
                         34       1    1fy2z            10.107900     599.689658
                         34       1    1fyz2            10.107900     599.689658
                         34       1    1fz3             10.107900     268.189368

                         35       1    1fx3              4.921690      53.114308
                         35       1    1fx2y             4.921690     118.767202
                         35       1    1fx2z             4.921690     118.767202
                         35       1    1fxy2             4.921690     118.767202
                         35       1    1fxyz             4.921690     205.710829
                         35       1    1fxz2             4.921690     118.767202
                         35       1    1fy3              4.921690      53.114308
                         35       1    1fy2z             4.921690     118.767202
                         35       1    1fyz2             4.921690     118.767202
                         35       1    1fz3              4.921690      53.114308

                         36       1    1fx3              2.194960       8.633051
                         36       1    1fx2y             2.194960      19.304090
                         36       1    1fx2z             2.194960      19.304090
                         36       1    1fxy2             2.194960      19.304090
                         36       1    1fxyz             2.194960      33.435664
                         36       1    1fxz2             2.194960      19.304090
                         36       1    1fy3              2.194960       8.633051
                         36       1    1fy2z             2.194960      19.304090
                         36       1    1fyz2             2.194960      19.304090
                         36       1    1fz3              2.194960       8.633051

                         37       1    1fx3              1.541620       3.898553
                         37       1    1fx2y             1.541620       8.717430
                         37       1    1fx2z             1.541620       8.717430
                         37       1    1fxy2             1.541620       8.717430
                         37       1    1fxyz             1.541620      15.099031
                         37       1    1fxz2             1.541620       8.717430
                         37       1    1fy3              1.541620       3.898553
                         37       1    1fy2z             1.541620       8.717430
                         37       1    1fyz2             1.541620       8.717430
                         37       1    1fz3              1.541620       3.898553

                         38       1    1fx3              0.806943       0.908554
                         38       1    1fx2y             0.806943       2.031589
                         38       1    1fx2z             0.806943       2.031589
                         38       1    1fxy2             0.806943       2.031589
                         38       1    1fxyz             0.806943       3.518816
                         38       1    1fxz2             0.806943       2.031589
                         38       1    1fy3              0.806943       0.908554
                         38       1    1fy2z             0.806943       2.031589
                         38       1    1fyz2             0.806943       2.031589
                         38       1    1fz3              0.806943       0.908554

                         39       1    1fx3              0.436387       0.227859
                         39       1    1fx2y             0.436387       0.509508
                         39       1    1fx2z             0.436387       0.509508
                         39       1    1fxy2             0.436387       0.509508
                         39       1    1fxyz             0.436387       0.882494
                         39       1    1fxz2             0.436387       0.509508
                         39       1    1fy3              0.436387       0.227859
                         39       1    1fy2z             0.436387       0.509508
                         39       1    1fyz2             0.436387       0.509508
                         39       1    1fz3              0.436387       0.227859

                         40       1    1gx4              6.771040     214.159685
                         40       1    1gx3y             6.771040     566.613266
                         40       1    1gx3z             6.771040     566.613266
                         40       1    1gx2y2            6.771040     731.494582
                         40       1    1gx2yz            6.771040    1266.985781
                         40       1    1gx2z2            6.771040     731.494582
                         40       1    1gxy3             6.771040     566.613266
                         40       1    1gxy2z            6.771040    1266.985781
                         40       1    1gxyz2            6.771040    1266.985781
                         40       1    1gxz3             6.771040     566.613266
                         40       1    1gy4              6.771040     214.159685
                         40       1    1gy3z             6.771040     566.613266
                         40       1    1gy2z2            6.771040     731.494582
                         40       1    1gyz3             6.771040     566.613266
                         40       1    1gz4              6.771040     214.159685

                         41       1    1gx4              2.966800      22.142577
                         41       1    1gx3y             2.966800      58.583753
                         41       1    1gx3z             2.966800      58.583753
                         41       1    1gx2y2            2.966800      75.631300
                         41       1    1gx2yz            2.966800     130.997254
                         41       1    1gx2z2            2.966800      75.631300
                         41       1    1gxy3             2.966800      58.583753
                         41       1    1gxy2z            2.966800     130.997254
                         41       1    1gxyz2            2.966800     130.997254
                         41       1    1gxz3             2.966800      58.583753
                         41       1    1gy4              2.966800      22.142577
                         41       1    1gy3z             2.966800      58.583753
                         41       1    1gy2z2            2.966800      75.631300
                         41       1    1gyz3             2.966800      58.583753
                         41       1    1gz4              2.966800      22.142577

                         42       1    1gx4              1.635990       4.308561
                         42       1    1gx3y             1.635990      11.399380
                         42       1    1gx3z             1.635990      11.399380
                         42       1    1gx2y2            1.635990      14.716536
                         42       1    1gx2yz            1.635990      25.489788
                         42       1    1gx2z2            1.635990      14.716536
                         42       1    1gxy3             1.635990      11.399380
                         42       1    1gxy2z            1.635990      25.489788
                         42       1    1gxyz2            1.635990      25.489788
                         42       1    1gxz3             1.635990      11.399380
                         42       1    1gy4              1.635990       4.308561
                         42       1    1gy3z             1.635990      11.399380
                         42       1    1gy2z2            1.635990      14.716536
                         42       1    1gyz3             1.635990      11.399380
                         42       1    1gz4              1.635990       4.308561

                         43       1    1gx4              0.990518       1.084069
                         43       1    1gx3y             0.990518       2.868177
                         43       1    1gx3z             0.990518       2.868177
                         43       1    1gx2y2            0.990518       3.702801
                         43       1    1gx2yz            0.990518       6.413439
                         43       1    1gx2z2            0.990518       3.702801
                         43       1    1gxy3             0.990518       2.868177
                         43       1    1gxy2z            0.990518       6.413439
                         43       1    1gxyz2            0.990518       6.413439
                         43       1    1gxz3             0.990518       2.868177
                         43       1    1gy4              0.990518       1.084069
                         43       1    1gy3z             0.990518       2.868177
                         43       1    1gy2z2            0.990518       3.702801
                         43       1    1gyz3             0.990518       2.868177
                         43       1    1gz4              0.990518       1.084069

                         44       1    1gx4              0.498669       0.164218
                         44       1    1gx3y             0.498669       0.434479
                         44       1    1gx3z             0.498669       0.434479
                         44       1    1gx2y2            0.498669       0.560910
                         44       1    1gx2yz            0.498669       0.971524
                         44       1    1gx2z2            0.498669       0.560910
                         44       1    1gxy3             0.498669       0.434479
                         44       1    1gxy2z            0.498669       0.971524
                         44       1    1gxyz2            0.498669       0.971524
                         44       1    1gxz3             0.498669       0.434479
                         44       1    1gy4              0.498669       0.164218
                         44       1    1gy3z             0.498669       0.434479
                         44       1    1gy2z2            0.498669       0.560910
                         44       1    1gyz3             0.498669       0.434479
                         44       1    1gz4              0.498669       0.164218

                         45       1    1hx5              4.059470      70.448136
                         45       1    1hx4y             4.059470     211.344409
                         45       1    1hx4z             4.059470     211.344409
                         45       1    1hx3y2            4.059470     322.833918
                         45       1    1hx3yz            4.059470     559.164748
                         45       1    1hx3z2            4.059470     322.833918
                         45       1    1hx2y3            4.059470     322.833918
                         45       1    1hx2y2z           4.059470     721.878586
                         45       1    1hx2yz2           4.059470     721.878586
                         45       1    1hx2z3            4.059470     322.833918
                         45       1    1hxy4             4.059470     211.344409
                         45       1    1hxy3z            4.059470     559.164748
                         45       1    1hxy2z2           4.059470     721.878586
                         45       1    1hxyz3            4.059470     559.164748
                         45       1    1hxz4             4.059470     211.344409
                         45       1    1hy5              4.059470      70.448136
                         45       1    1hy4z             4.059470     211.344409
                         45       1    1hy3z2            4.059470     322.833918
                         45       1    1hy2z3            4.059470     322.833918
                         45       1    1hyz4             4.059470     211.344409
                         45       1    1hz5              4.059470      70.448136

                         46       1    1hx5              1.699700       4.159624
                         46       1    1hx4y             1.699700      12.478872
                         46       1    1hx4z             1.699700      12.478872
                         46       1    1hx3y2            1.699700      19.061791
                         46       1    1hx3yz            1.699700      33.015991
                         46       1    1hx3z2            1.699700      19.061791
                         46       1    1hx2y3            1.699700      19.061791
                         46       1    1hx2y2z           1.699700      42.623461
                         46       1    1hx2yz2           1.699700      42.623461
                         46       1    1hx2z3            1.699700      19.061791
                         46       1    1hxy4             1.699700      12.478872
                         46       1    1hxy3z            1.699700      33.015991
                         46       1    1hxy2z2           1.699700      42.623461
                         46       1    1hxyz3            1.699700      33.015991
                         46       1    1hxz4             1.699700      12.478872
                         46       1    1hy5              1.699700       4.159624
                         46       1    1hy4z             1.699700      12.478872
                         46       1    1hy3z2            1.699700      19.061791
                         46       1    1hy2z3            1.699700      19.061791
                         46       1    1hyz4             1.699700      12.478872
                         46       1    1hz5              1.699700       4.159624

                         47       1    1hx5              0.868258       0.468762
                         47       1    1hx4y             0.868258       1.406287
                         47       1    1hx4z             0.868258       1.406287
                         47       1    1hx3y2            0.868258       2.148139
                         47       1    1hx3yz            0.868258       3.720686
                         47       1    1hx3z2            0.868258       2.148139
                         47       1    1hx2y3            0.868258       2.148139
                         47       1    1hx2y2z           0.868258       4.803385
                         47       1    1hx2yz2           0.868258       4.803385
                         47       1    1hx2z3            0.868258       2.148139
                         47       1    1hxy4             0.868258       1.406287
                         47       1    1hxy3z            0.868258       3.720686
                         47       1    1hxy2z2           0.868258       4.803385
                         47       1    1hxyz3            0.868258       3.720686
                         47       1    1hxz4             0.868258       1.406287
                         47       1    1hy5              0.868258       0.468762
                         47       1    1hy4z             0.868258       1.406287
                         47       1    1hy3z2            0.868258       2.148139
                         47       1    1hy2z3            0.868258       2.148139
                         47       1    1hyz4             0.868258       1.406287
                         47       1    1hz5              0.868258       0.468762

                         48       1    1ix6              1.481330       1.952640
                         48       1    1ix5y             1.481330       6.476174
                         48       1    1ix5z             1.481330       6.476174
                         48       1    1ix4y2            1.481330      11.217062
                         48       1    1ix4yz            1.481330      19.428521
                         48       1    1ix4z2            1.481330      11.217062
                         48       1    1ix3y3            1.481330      13.272206
                         48       1    1ix3y2z           1.481330      29.677556
                         48       1    1ix3yz2           1.481330      29.677556
                         48       1    1ix3z3            1.481330      13.272206
                         48       1    1ix2y4            1.481330      11.217062
                         48       1    1ix2y3z           1.481330      29.677556
                         48       1    1ix2y2z2          1.481330      38.313560
                         48       1    1ix2yz3           1.481330      29.677556
                         48       1    1ix2z4            1.481330      11.217062
                         48       1    1ixy5             1.481330       6.476174
                         48       1    1ixy4z            1.481330      19.428521
                         48       1    1ixy3z2           1.481330      29.677556
                         48       1    1ixy2z3           1.481330      29.677556
                         48       1    1ixyz4            1.481330      19.428521
                         48       1    1ixz5             1.481330       6.476174
                         48       1    1iy6              1.481330       1.952640
                         48       1    1iy5z             1.481330       6.476174
                         48       1    1iy4z2            1.481330      11.217062
                         48       1    1iy3z3            1.481330      13.272206
                         48       1    1iy2z4            1.481330      11.217062
                         48       1    1iyz5             1.481330       6.476174
                         48       1    1iz6              1.481330       1.952640

     The atoms of this atomic kind are PAW atoms (GAPW):
       Hard Gaussian function radius:                                      1.512
       Rho0 radius:                                                        1.512
       Maximum GTO radius used for PAW projector construction:            24.566

     GAPW Soft Basis Set                                          def2-QZVP_soft

       Number of orbital shell sets:                                          22
       Number of orbital shells:                                              22
       Number of primitive Cartesian functions:                               15
       Number of Cartesian basis functions:                                   86
       Number of spherical basis functions:                                   70
       Norm type:                                                              2

       Normalised Cartesian orbitals:

                        Set   Shell   Orbital            Exponent    Coefficient

                          1       1    1s         

                          2       1    1s         

                          3       1    1s         

                          4       1    1s         

                          5       1    1s         

                          6       1    1s                2.119474       1.251933

                          7       1    1s                0.757224       0.578533

                          8       1    1s                0.337472       0.315565

                          9       1    1s                0.138608       0.161901

                         10       1    1px               2.845094       1.581259
                         10       1    1py               2.845094       1.581259
                         10       1    1pz               2.845094       1.581259

                         11       1    1px        
                         11       1    1py        
                         11       1    1pz        

                         12       1    1px               1.242110       1.869132
                         12       1    1py               1.242110       1.869132
                         12       1    1pz               1.242110       1.869132

                         13       1    1px               0.556697       0.685431
                         13       1    1py               0.556697       0.685431
                         13       1    1pz               0.556697       0.685431

                         14       1    1px               0.233878       0.231834
                         14       1    1py               0.233878       0.231834
                         14       1    1pz               0.233878       0.231834

                         15       1    1px               0.093164       0.073367
                         15       1    1py               0.093164       0.073367
                         15       1    1pz               0.093164       0.073367

                         16       1    1dx2       
                         16       1    1dxy       
                         16       1    1dxz       
                         16       1    1dy2       
                         16       1    1dyz       
                         16       1    1dz2       

                         17       1    1dx2              1.276000       2.521437
                         17       1    1dxy              1.276000       4.367257
                         17       1    1dxz              1.276000       4.367257
                         17       1    1dy2              1.276000       2.521437
                         17       1    1dyz              1.276000       4.367257
                         17       1    1dz2              1.276000       2.521437

                         18       1    1dx2              0.583000       0.640220
                         18       1    1dxy              0.583000       1.108894
                         18       1    1dxz              0.583000       1.108894
                         18       1    1dy2              0.583000       0.640220
                         18       1    1dyz              0.583000       1.108894
                         18       1    1dz2              0.583000       0.640220

                         19       1    1dx2              0.243000       0.138427
                         19       1    1dxy              0.243000       0.239762
                         19       1    1dxz              0.243000       0.239762
                         19       1    1dy2              0.243000       0.138427
                         19       1    1dyz              0.243000       0.239762
                         19       1    1dz2              0.243000       0.138427

                         20       1    1fx3              0.423000       0.212432
                         20       1    1fx2y             0.423000       0.475013
                         20       1    1fx2z             0.423000       0.475013
                         20       1    1fxy2             0.423000       0.475013
                         20       1    1fxyz             0.423000       0.822746
                         20       1    1fxz2             0.423000       0.475013
                         20       1    1fy3              0.423000       0.212432
                         20       1    1fy2z             0.423000       0.475013
                         20       1    1fyz2             0.423000       0.475013
                         20       1    1fz3              0.423000       0.212432

                         21       1    1fx3              1.089000       1.783476
                         21       1    1fx2y             1.089000       3.987973
                         21       1    1fx2z             1.089000       3.987973
                         21       1    1fxy2             1.089000       3.987973
                         21       1    1fxyz             1.089000       6.907371
                         21       1    1fxz2             1.089000       3.987973
                         21       1    1fy3              1.089000       1.783476
                         21       1    1fy2z             1.089000       3.987973
                         21       1    1fyz2             1.089000       3.987973
                         21       1    1fz3              1.089000       1.783476

                         22       1    1gx4              0.827000       0.660048
                         22       1    1gx3y             0.827000       1.746323
                         22       1    1gx3z             0.827000       1.746323
                         22       1    1gx2y2            0.827000       2.254493
                         22       1    1gx2yz            0.827000       3.904897
                         22       1    1gx2z2            0.827000       2.254493
                         22       1    1gxy3             0.827000       1.746323
                         22       1    1gxy2z            0.827000       3.904897
                         22       1    1gxyz2            0.827000       3.904897
                         22       1    1gxz3             0.827000       1.746323
                         22       1    1gy4              0.827000       0.660048
                         22       1    1gy3z             0.827000       1.746323
                         22       1    1gy2z2            0.827000       2.254493
                         22       1    1gyz3             0.827000       1.746323
                         22       1    1gz4              0.827000       0.660048

     AE Potential information for                                            ALL

       Description:                                       All-electron potential
                                          Krack, Parrinello, PCCP 2, 2105 (2000)

       Gaussian exponent of the core charge distribution:               2.974420
       Electronic configuration (s p d ...):                           6  11   0


 MOLECULE KIND INFORMATION


 All atoms are their own molecule, skipping detailed information


 TOTAL NUMBERS AND MAXIMUM NUMBERS

  Total number of            - Atomic kinds:                                   2
                             - Atoms:                                          2
                             - Shell sets:                                    32
                             - Shells:                                        32
                             - Primitive Cartesian functions:                 54
[...]
 -                                DBCSR STATISTICS                             -
 -                                                                             -
 -------------------------------------------------------------------------------
 COUNTER                                    TOTAL       BLAS       SMM       ACC
 flops    30 x    30 x    30                54000     100.0%      0.0%      0.0%
 flops    70 x    30 x    30               126000     100.0%      0.0%      0.0%
 flops    30 x    30 x    70               126000     100.0%      0.0%      0.0%
 flops    30 x    30 x     9               162000     100.0%      0.0%      0.0%
 flops    70 x    30 x    70               294000     100.0%      0.0%      0.0%
 flops    70 x    30 x     9               378000     100.0%      0.0%      0.0%
 flops   100 x   100 x    30               600000     100.0%      0.0%      0.0%
 flops    70 x    70 x     9               882000     100.0%      0.0%      0.0%
 flops   100 x   100 x    70              1400000     100.0%      0.0%      0.0%
 flops    30 x   270 x    30             14094000     100.0%      0.0%      0.0%
 flops    91 x    91 x    91             21099988     100.0%      0.0%      0.0%
 flops    70 x   270 x    30             31752000     100.0%      0.0%      0.0%
 flops    30 x   270 x    70             32886000     100.0%      0.0%      0.0%
 flops    30 x   630 x    30             32886000     100.0%      0.0%      0.0%
 flops   230 x    91 x    91             53329640     100.0%      0.0%      0.0%
 flops    91 x   230 x    91             53329640     100.0%      0.0%      0.0%
 flops    91 x    91 x   230             53329640     100.0%      0.0%      0.0%
 flops    70 x   270 x    70             74088000     100.0%      0.0%      0.0%
 flops    70 x   630 x    30             74088000     100.0%      0.0%      0.0%
 flops    30 x   630 x    70             76734000     100.0%      0.0%      0.0%
 flops   230 x   230 x    91            134789200     100.0%      0.0%      0.0%
 flops   230 x    91 x   230            134789200     100.0%      0.0%      0.0%
 flops    91 x   230 x   230            134789200     100.0%      0.0%      0.0%
 flops    70 x   630 x    70            172872000     100.0%      0.0%      0.0%
 flops   230 x   230 x   230            340676000     100.0%      0.0%      0.0%
 flops    30 x   240 x    30            488592000     100.0%      0.0%      0.0%
 flops   321 x   100 x    30           1024632000     100.0%      0.0%      0.0%
 flops    70 x   240 x    30           1100736000     100.0%      0.0%      0.0%
 flops    91 x    91 x   240           1112966400     100.0%      0.0%      0.0%
 flops    30 x   240 x    70           1140048000     100.0%      0.0%      0.0%
 flops    30 x   560 x    30           1140048000     100.0%      0.0%      0.0%
 flops    91 x    91 x   260           1205713600     100.0%      0.0%      0.0%
 flops   321 x   100 x    91           1554025200     100.0%      0.0%      0.0%
 flops   321 x   100 x    70           2390808000     100.0%      0.0%      0.0%
 flops    70 x   240 x    70           2568384000     100.0%      0.0%      0.0%
 flops    70 x   560 x    30           2568384000     100.0%      0.0%      0.0%
 flops    30 x   560 x    70           2660112000     100.0%      0.0%      0.0%
 flops   230 x    91 x   240           2812992000     100.0%      0.0%      0.0%
 flops    91 x   230 x   240           2812992000     100.0%      0.0%      0.0%
 flops   230 x    91 x   260           3047408000     100.0%      0.0%      0.0%
 flops    91 x   230 x   260           3047408000     100.0%      0.0%      0.0%
 flops   321 x   100 x   230           3927756000     100.0%      0.0%      0.0%
 flops    70 x   560 x    70           5992896000     100.0%      0.0%      0.0%
 flops   230 x   230 x   240           7109760000     100.0%      0.0%      0.0%
 flops   230 x   230 x   260           7702240000     100.0%      0.0%      0.0%
 flops inhomo. stacks                           0       0.0%      0.0%      0.0%
 flops total                        56.847456E+09     100.0%      0.0%      0.0%
 flops max/rank                     11.030314E+09     100.0%      0.0%      0.0%
 matmuls inhomo. stacks                         0       0.0%      0.0%      0.0%
 matmuls total                              13104     100.0%      0.0%      0.0%
 number of processed stacks                 13104     100.0%      0.0%      0.0%
 average stack size                                     1.0       0.0       0.0
 marketing flops                    57.295569E+09
 -------------------------------------------------------------------------------
 # multiplications                            867
 max memory usage/rank             548.044800E+06
 # max total images/rank                        5
 # max 3D layers                                1
 # MPI messages exchanged                 1087680
 MPI messages size (bytes):
  total size                         3.676739E+09
  min size                           0.000000E+00
  max size                         590.640000E+03
  average size                       3.380350E+03
 MPI breakdown and total messages size (bytes):
             size <=      128             1068024                        0
       128 < size <=     8192                 123                   885600
      8192 < size <=    32768                1620                 38858400
     32768 < size <=   131072                7203                517513920
    131072 < size <=  4194304               10710               3119451216
   4194304 < size <= 16777216                   0                        0
  16777216 < size                               0                        0
 -------------------------------------------------------------------------------

 *** WARNING in dbcsr_mm.F:278 :: Using a non-square number of MPI ranks ***
 *** might lead to poor performance. Used ranks: 40 Suggested: 36 81     ***

 -------------------------------------------------------------------------------
 -                                                                             -
 -                      DBCSR MESSAGE PASSING PERFORMANCE                      -
 -                                                                             -
 -------------------------------------------------------------------------------

 ROUTINE             CALLS      AVE VOLUME [Bytes]
 MP_Group               43
 MP_Bcast               46                     12.
 MP_Allreduce         4981                      8.
 MP_Alltoall          2779                  36827.
 MP_Wait             60360
 MP_ISend            57852                   8536.
 MP_IRecv            57852                     61.
 MP_Memory           93104
 -------------------------------------------------------------------------------


 MEMORY| Estimated peak process memory [MiB]                                 523

 -------------------------------------------------------------------------------
 ----                             MULTIGRID INFO                            ----
 -------------------------------------------------------------------------------
 count for grid        1:         399027          cutoff [a.u.]          200.00
 count for grid        2:          60746          cutoff [a.u.]           66.67
 count for grid        3:          23453          cutoff [a.u.]           22.22
 count for grid        4:           3529          cutoff [a.u.]            7.41
 total gridlevel count  :         486755

 -------------------------------------------------------------------------------
 -                                                                             -
 -                         MESSAGE PASSING PERFORMANCE                         -
 -                                                                             -
 -------------------------------------------------------------------------------

 ROUTINE             CALLS      AVE VOLUME [Bytes]
 MP_Group                5
 MP_Bcast              223                2557068.
 MP_Allreduce          550                  90679.
 MP_Sync                81
 MP_Alltoall           303                5740780.
 MP_ISendRecv         1872                  46559.
 MP_Wait              5418
 MP_comm_split          19
 MP_ISend             7692                  91163.
 MP_IRecv             6602                 162440.
 MP_Recv                 8                    800.
 -------------------------------------------------------------------------------


 -------------------------------------------------------------------------------
 -                                                                             -
 -                           R E F E R E N C E S                               -
 -                                                                             -
 -------------------------------------------------------------------------------
 
 CP2K version 7.0 (Development Version), the CP2K developers group (2018).
 CP2K is freely available from https://www.cp2k.org/ .

 Schuett, Ole; Messmer, Peter; Hutter, Juerg; VandeVondele, Joost. 
 Electronic Structure Calculations on Graphics Processing Units, John Wiley & Sons, Ltd, 173-190 (2016). 
 GPU-Accelerated Sparse Matrix-Matrix Multiplication for Linear Scaling Density Functional Theory.
 https://dx.doi.org/10.1002/9781118670712.ch8


 Del Ben, M; Schuett, O; Wentz, T; Messmer, P; Hutter, J;
 VandeVondele, J. 
 COMPUTER PHYSICS COMMUNICATIONS, 187, 120-129 (2015). 
 Enabling simulation at the fifth rung of DFT: Large scale RPA
 calculations with excellent time to solution.
 https://dx.doi.org/10.1016/j.cpc.2014.10.021


 Borstnik, U; VandeVondele, J; Weber, V; Hutter, J. 
 PARALLEL COMPUTING, 40 (5-6), 47-58 (2014). 
 Sparse matrix multiplication: The distributed block-compressed sparse
 row library.
 https://dx.doi.org/10.1016/j.parco.2014.03.012


 Hutter, J; Iannuzzi, M; Schiffmann, F; VandeVondele, J. 
 WILEY INTERDISCIPLINARY REVIEWS-COMPUTATIONAL MOLECULAR SCIENCE, 4 (1), 15-25 (2014). 
 CP2K: atomistic simulations of condensed matter systems.
 https://dx.doi.org/10.1002/wcms.1159


 Del Ben, M; Hutter, J; VandeVondele, J. 
 JOURNAL OF CHEMICAL THEORY AND COMPUTATION, 9 (6), 2654-2671 (2013). 
 Electron Correlation in the Condensed Phase from a Resolution of
 Identity Approach Based on the Gaussian and Plane Waves Scheme.
 https://dx.doi.org/10.1021/ct4002202


 Del Ben, M; Hutter, J; VandeVondele, J. 
 JOURNAL OF CHEMICAL THEORY AND COMPUTATION, 8 (11), 4177-4188 (2012). 
 Second-Order Moller-Plesset Perturbation Theory in the Condensed Phase:
 An Efficient and Massively Parallel Gaussian and Plane Waves Approach.
 https://dx.doi.org/10.1021/ct300531w


 Guidon, M; Hutter, J; VandeVondele, J. 
 JOURNAL OF CHEMICAL THEORY AND COMPUTATION, 5 (11), 3010-3021 (2009). 
 Robust Periodic Hartree-Fock Exchange for Large-Scale Simulations Using
 Gaussian Basis Sets.
 https://dx.doi.org/10.1021/ct900494g


 Guidon, M; Schiffmann, F; Hutter, J; VandeVondele, J. 
 JOURNAL OF CHEMICAL PHYSICS, 128 (21), 214104 (2008). 
 Ab initio molecular dynamics using hybrid density functionals.
 https://dx.doi.org/10.1063/1.2931945


 Frigo, M; Johnson, SG. 
 PROCEEDINGS OF THE IEEE, 93 (2), 216-231 (2005). 
 The design and implementation of FFTW3.
 https://dx.doi.org/10.1109/JPROC.2004.840301


 Lippert, G; Hutter, J; Parrinello, M. 
 THEORETICAL CHEMISTRY ACCOUNTS, 103 (2), 124-140 (1999). 
 The Gaussian and augmented-plane-wave density functional method for ab
 initio molecular dynamics simulations.
 https://dx.doi.org/10.1007/s002140050523


 Krack, M; Parrinello, M. 
 PHYSICAL CHEMISTRY CHEMICAL PHYSICS, 2 (10), 2105-2112 (2000). 
 All-electron ab-initio molecular dynamics.
 https://dx.doi.org/10.1039/b001167n


 Martyna, GJ; Tuckerman, ME. 
 JOURNAL OF CHEMICAL PHYSICS, 110 (6), 2810-2821 (1999). 
 A reciprocal space based method for treating long range interactions in
 ab initio and force-field-based calculations in clusters.
 https://dx.doi.org/10.1063/1.477923


 Perdew, JP; Burke, K; Ernzerhof, M. 
 PHYSICAL REVIEW LETTERS, 77 (18), 3865-3868 (1996). 
 Generalized gradient approximation made simple.
 https://dx.doi.org/10.1103/PhysRevLett.77.3865


 -------------------------------------------------------------------------------
 -                                                                             -
 -                                T I M I N G                                  -
 -                                                                             -
 -------------------------------------------------------------------------------
 SUBROUTINE                       CALLS  ASD         SELF TIME        TOTAL TIME
                                MAXIMUM       AVERAGE  MAXIMUM  AVERAGE  MAXIMUM
 CP2K                                 1  1.0    0.016    0.024   54.236   54.237
 qs_energies                          1  2.0    0.000    0.000   53.131   53.131
 mp2_main                             1  3.0    0.000    0.000   33.366   33.367
 compute_vec_Sigma_x_minus_vxc_       1  4.0    0.000    0.000   19.952   19.952
 scf_env_do_scf                       1  3.0    0.000    0.000   19.111   19.111
 scf_env_do_scf_inner_loop           10  4.0    0.001    0.001   19.111   19.111
 integrate_four_center                1  5.0    0.007    0.011   19.101   19.105
 qs_ks_build_kohn_sham_matrix        11  6.8    0.003    0.004   16.890   16.900
 qs_ks_update_qs_env                 10  5.0    0.000    0.000   16.052   16.061
 rebuild_ks_matrix                   10  6.0    0.000    0.000   16.051   16.060
 mp2_gpw_main                         1  4.0    0.000    0.001   13.401   13.402
 rpa_ri_compute_en                    1  5.0    0.000    0.000   12.091   12.092
 rpa_num_int                          1  6.0    0.001    0.003   12.089   12.090
 calc_screening_functions             1  6.0    4.376    5.128    7.485    8.842
 pw_transfer                        228  9.5    0.021    0.025    8.116    8.368
 fft_wrap_pw1pw2                    193 10.6    0.003    0.003    7.967    8.224
 fft_wrap_pw1pw2_200                126 11.7    0.548    0.587    7.416    7.677
 mp_sync                             81  8.7    6.410    6.760    6.410    6.760
 integrate_four_center_main           1  6.0    0.000    0.000    0.278    6.564
 integrate_four_center_bin          128  7.0    0.278    6.564    0.278    6.564
 fft3d_ps                           193 12.6    2.784    2.967    5.795    6.250
 powell_optimize                1165255  7.0    5.016    5.903    5.016    5.903
 rs_pw_transfer                     112  9.3    0.003    0.003    5.150    5.330
 qs_vxc_create                       11  7.8    0.000    0.001    5.226    5.226
 xc_vxc_pw_create                    10  9.0    0.062    0.074    5.226    5.226
 dbcsr_multiply_generic             867  9.9    0.039    0.046    4.251    5.184
 mp_sum_d                          1125  6.6    3.824    4.786    3.824    4.786
 GW_postprocessing                    1  7.0    0.000    0.000    4.646    4.647
 compute_self_energy_im_time_gw       1  8.0    0.002    0.003    4.646    4.646
 calc_pair_dist_radii                 1  6.0    1.719    2.100    3.627    4.595
 multiply_cannon                    867 10.9    0.137    0.156    2.673    4.179
 mp_sum_l                          4297 10.9    2.073    3.640    2.073    3.640
 prepare_gapw_den                    11  7.8    0.000    0.001    3.477    3.515
 mp_waitall_1                     62614 13.4    1.753    3.278    1.753    3.278
 qs_rho_update_rho                   11  5.0    0.000    0.000    3.226    3.227
 calculate_rho_elec                  11  6.0    0.053    0.721    3.189    3.191
 density_rs2pw                       11  7.0    0.001    0.001    2.865    2.955
 multiply_cannon_metrocomm3       16523 11.9    0.022    0.027    1.202    2.954
 integrate_four_center_load           1  6.0    0.000    0.000    1.406    2.936
 hfx_load_balance                     1  7.0    0.000    0.000    1.406    2.936
 sum_up_and_integrate                11  7.8    0.024    0.034    2.649    2.903
 integrate_v_rspace                  11  8.8    0.029    0.314    2.625    2.880
 hfx_load_balance_range               1  8.0    0.001    0.044    1.316    2.846
 mp_sum_dm                           72  7.7    1.998    2.822    1.998    2.822
 xc_rho_set_and_dset_create          10 10.0    0.040    0.049    2.365    2.661
 mp_alltoall_z22v                   193 14.6    2.214    2.645    2.214    2.645
 calculate_vxc_atom                  11  7.8    0.012    0.316    2.633    2.635
 potential_pw2rs                     11  9.8    0.002    0.002    2.543    2.547
 mp_waitany                        3080 11.3    2.137    2.540    2.137    2.540
 compute_self_energy_im_time_gw     266  9.0    0.001    0.001    1.808    2.354
 multiply_cannon_multrec          16523 11.9    0.316    2.269    0.477    2.278
 multiply_cannon_metrocomm1       16523 11.9    0.010    0.012    0.249    2.276
 gaVxcgb_GC                          20  9.0    0.056    2.258    0.056    2.258
 rs_pw_transfer_PW2RS_200            23 10.7    1.011    1.133    2.014    2.153
 rs_pw_transfer_RS2PW_200            23  9.8    0.964    1.083    1.931    2.022
 mp_sum_dv                           58  8.3    1.517    1.995    1.517    1.995
 rpa_num_int_im_t_alloc_mat_gw        1  7.0    0.000    0.000    0.061    1.942
 allocate_matrices_gw_im_time         1  8.0    0.000    0.000    0.061    1.942
 get_mat_3c_overl_int_gw              1  9.0    0.000    0.001    0.061    1.942
 fill_mat_3c_overl_int_gw             1 10.0    0.000    0.000    0.054    1.935
 rpa_num_int_im_t_alloc_mat_24        1  7.0    0.000    0.000    1.884    1.934
 cp_fm_copy_general                   2  8.0    0.000    0.001    1.884    1.934
 cp_fm_start_copy_general             2  9.0    0.000    0.001    1.884    1.933
 mp_allgather_i                       4 10.0    1.883    1.933    1.883    1.933
 GW3c_fill_mat                        1 11.0    0.022    0.872    0.048    1.928
 yz_to_x                             97 13.2    0.329    0.365    1.564    1.878
 put_rho0_on_grid                    11  8.8    0.011    0.016    1.726    1.765
 dbcsr_trace_a_b_d                  554  9.9    0.002    0.028    0.865    1.688
 compute_self_energy_im_time_gw     266  9.0    0.000    0.001    0.843    1.663
 calculate_rho_atom                  22  8.8    0.463    1.612    0.463    1.612
 x_to_yz                             96 14.1    0.460    0.529    1.439    1.599
 integrate_vhg0_rspace               11  7.8    0.099    0.130    1.438    1.520
 get_l_sq_wghts_cos_tf_w_to_t         1  7.0    0.519    1.372    1.374    1.376
 get_l_sq_wghts_cos_tf_t_to_w         1  7.0    0.515    1.352    1.351    1.352
 get_l_sq_wghts_sin_tf_t_to_w         1  7.0    0.517    1.340    1.341    1.345
 mp2_ri_gpw_compute_in                1  5.0    0.000    0.000    1.042    1.303
 compute_3c_overlap_int               1  6.0    0.362    0.469    0.956    1.215
 compute_mat_P_omega                  1  7.0    0.000    0.000    1.156    1.157
 compute_self_energy_im_time_gw     266  9.0    0.001    0.001    0.832    1.136
 compute_self_energy_im_time_gw     266  9.0    0.001    0.001    1.102    1.112
 -------------------------------------------------------------------------------

 The number of warnings for this run is : 3
 
 -------------------------------------------------------------------------------
  **** **** ******  **  PROGRAM ENDED AT                 2019-05-31 17:17:44.547
 ***** ** ***  *** **   PROGRAM RAN ON                                    tcopt4
 **    ****   ******    PROGRAM RAN BY                                   wilhelm
 ***** **    ** ** **   PROGRAM PROCESS ID                                 83060
  **** **  *******  **  PROGRAM STOPPED IN /data/wilhelm/2_job_test/11_GW100/3_c
                                           alcs/53_HCl
