 DBCSR| CPU Multiplication driver                                           BLAS
 DBCSR| Multrec recursion limit                                              512
 DBCSR| Multiplication stack size                                           1000
 DBCSR| Maximum elements for images                                    UNLIMITED
 DBCSR| Multiplicative factor virtual images                                   1
 DBCSR| Use multiplication densification                                       T
 DBCSR| Multiplication size stacks                                             3
 DBCSR| Number of 3D layers                                               SINGLE
 DBCSR| Use MPI memory allocation                                              T
 DBCSR| Use RMA algorithm                                                      F
 DBCSR| Use Communication thread                                               T
 DBCSR| Communication thread load                                             87


  **** **** ******  **  PROGRAM STARTED AT               2019-05-31 01:07:26.654
 ***** ** ***  *** **   PROGRAM STARTED ON                                tcopt4
 **    ****   ******    PROGRAM STARTED BY                               wilhelm
 ***** **    ** ** **   PROGRAM PROCESS ID                                 21161
  **** **  *******  **  PROGRAM STARTED IN /data/wilhelm/2_job_test/11_GW100/3_c
                                           alcs/100_CuCN

 CP2K| version string:                    CP2K version 7.0 (Development Version)
 CP2K| source code revision number:                                  git:026fb12
 CP2K| cp2kflags: libint fftw3 libxc pexsi elpa=201705 parallel mpi3 scalapack q
 CP2K|            uip libderiv_max_am1=5 libint_max_am=6
 CP2K| is freely available from                            https://www.cp2k.org/
 CP2K| Program compiled at                         Sat May 11 13:15:02 CEST 2019
 CP2K| Program compiled on                                                tcopt4
 CP2K| Program compiled for                            local_valgrind_March_2019
 CP2K| Data directory path              /data/wilhelm/1_git_repository/cp2k/data
 CP2K| Input file name                                                    GW.inp

 GLOBAL| Force Environment number                                              1
 GLOBAL| Basis set file name                              BASIS_def2_QZVP_RI_ALL
 GLOBAL| Potential file name                                           POTENTIAL
 GLOBAL| MM Potential file name                                     MM_POTENTIAL
 GLOBAL| Coordinate file name                                       100_CuCN.xyz
 GLOBAL| Method name                                                        CP2K
 GLOBAL| Project name                                                   ALL_ELEC
 GLOBAL| Preferred FFT library                                             FFTW3
 GLOBAL| Preferred diagonalization lib.                                       SL
 GLOBAL| Run type                                                         ENERGY
 GLOBAL| All-to-all communication in single precision                          F
 GLOBAL| FFTs using library dependent lengths                                  F
 GLOBAL| Global print level                                               MEDIUM
 GLOBAL| MPI I/O enabled                                                       T
 GLOBAL| Total number of message passing processes                            24
 GLOBAL| Number of threads for this process                                    1
 GLOBAL| This output is from process                                           0
 GLOBAL| CPU model name :  Intel(R) Xeon(R) CPU E5-2697 v3 @ 2.60GHz

 MEMORY| system memory details [Kb]
 MEMORY|                        rank 0           min           max       average
 MEMORY| MemTotal            396954008     396954008     396954008     396954008
 MEMORY| MemFree             229250292     229250292     229250292     229250292
 MEMORY| Buffers                228924        228924        228924        228924
 MEMORY| Cached               14318716      14318716      14318716      14318716
 MEMORY| Slab                   541596        541596        541596        541596
 MEMORY| SReclaimable           402968        402968        402968        402968
 MEMORY| MemLikelyFree       244200900     244200900     244200900     244200900


 *** Fundamental physical constants (SI units) ***

 *** Literature: B. J. Mohr and B. N. Taylor,
 ***             CODATA recommended values of the fundamental physical
 ***             constants: 2006, Web Version 5.1
 ***             http://physics.nist.gov/constants

 Speed of light in vacuum [m/s]                             2.99792458000000E+08
 Magnetic constant or permeability of vacuum [N/A**2]       1.25663706143592E-06
 Electric constant or permittivity of vacuum [F/m]          8.85418781762039E-12
 Planck constant (h) [J*s]                                  6.62606896000000E-34
 Planck constant (h-bar) [J*s]                              1.05457162825177E-34
 Elementary charge [C]                                      1.60217648700000E-19
 Electron mass [kg]                                         9.10938215000000E-31
 Electron g factor [ ]                                     -2.00231930436220E+00
 Proton mass [kg]                                           1.67262163700000E-27
 Fine-structure constant                                    7.29735253760000E-03
 Rydberg constant [1/m]                                     1.09737315685270E+07
 Avogadro constant [1/mol]                                  6.02214179000000E+23
 Boltzmann constant [J/K]                                   1.38065040000000E-23
 Atomic mass unit [kg]                                      1.66053878200000E-27
 Bohr radius [m]                                            5.29177208590000E-11

 *** Conversion factors ***

 [u] -> [a.u.]                                              1.82288848426455E+03
 [Angstrom] -> [Bohr] = [a.u.]                              1.88972613288564E+00
 [a.u.] = [Bohr] -> [Angstrom]                              5.29177208590000E-01
 [a.u.] -> [s]                                              2.41888432650478E-17
 [a.u.] -> [fs]                                             2.41888432650478E-02
 [a.u.] -> [J]                                              4.35974393937059E-18
 [a.u.] -> [N]                                              8.23872205491840E-08
 [a.u.] -> [K]                                              3.15774647902944E+05
 [a.u.] -> [kJ/mol]                                         2.62549961709828E+03
 [a.u.] -> [kcal/mol]                                       6.27509468713739E+02
 [a.u.] -> [Pa]                                             2.94210107994716E+13
 [a.u.] -> [bar]                                            2.94210107994716E+08
 [a.u.] -> [atm]                                            2.90362800883016E+08
 [a.u.] -> [eV]                                             2.72113838565563E+01
 [a.u.] -> [Hz]                                             6.57968392072181E+15
 [a.u.] -> [1/cm] (wave numbers)                            2.19474631370540E+05
 [a.u./Bohr**2] -> [1/cm]                                   5.14048714338585E+03
 

 CELL_TOP| Volume [angstrom^3]:                                         4096.000
 CELL_TOP| Vector a [angstrom    16.000     0.000     0.000    |a| =      16.000
 CELL_TOP| Vector b [angstrom     0.000    16.000     0.000    |b| =      16.000
 CELL_TOP| Vector c [angstrom     0.000     0.000    16.000    |c| =      16.000
 CELL_TOP| Angle (b,c), alpha [degree]:                                   90.000
 CELL_TOP| Angle (a,c), beta  [degree]:                                   90.000
 CELL_TOP| Angle (a,b), gamma [degree]:                                   90.000
 CELL_TOP| Numerically orthorhombic:                                         YES

 GENERATE|  Preliminary Number of Bonds generated:                             0
 GENERATE|  Achieved consistency in connectivity generation.

 CELL| Volume [angstrom^3]:                                             4096.000
 CELL| Vector a [angstrom]:      16.000     0.000     0.000    |a| =      16.000
 CELL| Vector b [angstrom]:       0.000    16.000     0.000    |b| =      16.000
 CELL| Vector c [angstrom]:       0.000     0.000    16.000    |c| =      16.000
 CELL| Angle (b,c), alpha [degree]:                                       90.000
 CELL| Angle (a,c), beta  [degree]:                                       90.000
 CELL| Angle (a,b), gamma [degree]:                                       90.000
 CELL| Numerically orthorhombic:                                             YES

 CELL_REF| Volume [angstrom^3]:                                         4096.000
 CELL_REF| Vector a [angstrom    16.000     0.000     0.000    |a| =      16.000
 CELL_REF| Vector b [angstrom     0.000    16.000     0.000    |b| =      16.000
 CELL_REF| Vector c [angstrom     0.000     0.000    16.000    |c| =      16.000
 CELL_REF| Angle (b,c), alpha [degree]:                                   90.000
 CELL_REF| Angle (a,c), beta  [degree]:                                   90.000
 CELL_REF| Angle (a,b), gamma [degree]:                                   90.000
 CELL_REF| Numerically orthorhombic:                                         YES

 *******************************************************************************
 *******************************************************************************
 **                                                                           **
 **     #####                         ##              ##                      **
 **    ##   ##            ##          ##              ##                      **
 **   ##     ##                       ##            ######                    **
 **   ##     ##  ##   ##  ##   #####  ##  ##   ####   ##    #####    #####    **
 **   ##     ##  ##   ##  ##  ##      ## ##   ##      ##   ##   ##  ##   ##   **
 **   ##  ## ##  ##   ##  ##  ##      ####     ###    ##   ######   ######    **
 **    ##  ###   ##   ##  ##  ##      ## ##      ##   ##   ##       ##        **
 **     #######   #####   ##   #####  ##  ##  ####    ##    #####   ##        **
 **           ##                                                    ##        **
 **                                                                           **
 **                                                ... make the atoms dance   **
 **                                                                           **
 **            Copyright (C) by CP2K developers group (2000 - 2019)           **
 **                                                                           **
 *******************************************************************************

 DFT| Spin restricted Kohn-Sham (RKS) calculation                            RKS
 DFT| Multiplicity                                                             1
 DFT| Number of spin states                                                    1
 DFT| Charge                                                                   0
 DFT| Self-interaction correction (SIC)                                       NO
 DFT| Cutoffs: density                                              1.000000E-10
 DFT|          gradient                                             1.000000E-10
 DFT|          tau                                                  1.000000E-10
 DFT|          cutoff_smoothing_range                               0.000000E+00
 DFT| XC density smoothing                                                  NONE
 DFT| XC derivatives                                                          PW
 FUNCTIONAL| ROUTINE=NEW
 FUNCTIONAL| PBE:
 FUNCTIONAL| J.P.Perdew, K.Burke, M.Ernzerhof, Phys. Rev. Letter, vol. 77, n 18,
 FUNCTIONAL|  pp. 3865-3868, (1996){spin unpolarized}                           

 QS| Method:                                                                GAPW
 QS| Density plane wave grid type                        NON-SPHERICAL FULLSPACE
 QS| Number of grid levels:                                                    4
 QS| Density cutoff [a.u.]:                                                200.0
 QS| Multi grid cutoff [a.u.]: 1) grid level                               200.0
 QS|                           2) grid level                                66.7
 QS|                           3) grid level                                22.2
 QS|                           4) grid level                                 7.4
 QS| Grid level progression factor:                                          3.0
 QS| Relative density cutoff [a.u.]:                                        25.0
 QS| Consistent realspace mapping and integration 
 QS| Interaction thresholds: eps_pgf_orb:                                1.0E-05
 QS|                         eps_filter_matrix:                          0.0E+00
 QS|                         eps_core_charge:                            1.0E-12
 QS|                         eps_rho_gspace:                             1.0E-10
 QS|                         eps_rho_rspace:                             1.0E-10
 QS|                         eps_gvg_rspace:                             1.0E-05
 QS|                         eps_ppl:                                    1.0E-02
 QS|                         eps_ppnl:                                   1.0E-07
 QS| GAPW|                   eps_fit:                                    1.0E-04
 QS| GAPW|                   eps_iso:                                    1.0E-12
 QS| GAPW|                   eps_svd:                                    1.0E-08
 QS| GAPW|                   eps_cpc:                                    1.0E-10
 QS| GAPW|   atom-r-grid: quadrature:                 GC_LOG                        
 QS| GAPW|      atom-s-grid:  max l :                                          8
 QS| GAPW|      max_l_rho0 :                                                   2


 ATOMIC KIND INFORMATION

  1. Atomic kind: C                                     Number of atoms:       1

     Orbital Basis Set                                                 def2-QZVP

       Number of orbital shell sets:                                          17
       Number of orbital shells:                                              17
       Number of primitive Cartesian functions:                               29
       Number of Cartesian basis functions:                                   72
       Number of spherical basis functions:                                   57
       Norm type:                                                              2

       Normalised Cartesian orbitals:

                        Set   Shell   Orbital            Exponent    Coefficient

                          1       1    1s            67025.071029       0.210754
                                                     10039.986538       0.394420
                                                      2284.931691       0.681489
                                                       647.141221       1.107503
                                                       211.094723       1.690216
                                                        76.177644       2.371646
                                                        29.633839       2.879905
                                                        12.187785       2.751196

                          2       1    1s               53.026006       1.279547
                                                        15.258503       5.110319

                          3       1    1s                5.240396       2.468500

                          4       1    1s                2.290502       1.326961

                          5       1    1s                0.696733       0.543513

                          6       1    1s                0.275993       0.271384

                          7       1    1s                0.107399       0.133709

                          8       1    1px             105.125551       1.197879
                                                        24.884461       1.548521
                                                         7.863723       1.667474
                                                         2.840700       1.549652
                                                         1.122714       1.157594
                          8       1    1py             105.125551       1.197879
                                                        24.884461       1.548521
                                                         7.863723       1.667474
                                                         2.840700       1.549652
                                                         1.122714       1.157594
                          8       1    1pz             105.125551       1.197879
                                                        24.884461       1.548521
                                                         7.863723       1.667474
                                                         2.840700       1.549652
                                                         1.122714       1.157594

                          9       1    1px               0.460507       0.540736
                          9       1    1py               0.460507       0.540736
                          9       1    1pz               0.460507       0.540736

                         10       1    1px               0.189375       0.178071
                         10       1    1py               0.189375       0.178071
                         10       1    1pz               0.189375       0.178071

                         11       1    1px               0.075984       0.056865
                         11       1    1py               0.075984       0.056865
                         11       1    1pz               0.075984       0.056865

                         12       1    1dx2              1.848000       4.821009
                         12       1    1dxy              1.848000       8.350232
                         12       1    1dxz              1.848000       8.350232
                         12       1    1dy2              1.848000       4.821009
                         12       1    1dyz              1.848000       8.350232
                         12       1    1dz2              1.848000       4.821009

                         13       1    1dx2              0.649000       0.772392
                         13       1    1dxy              0.649000       1.337822
                         13       1    1dxz              0.649000       1.337822
                         13       1    1dy2              0.649000       0.772392
                         13       1    1dyz              0.649000       1.337822
                         13       1    1dz2              0.649000       0.772392

                         14       1    1dx2              0.228000       0.123821
                         14       1    1dxy              0.228000       0.214465
                         14       1    1dxz              0.228000       0.214465
                         14       1    1dy2              0.228000       0.123821
                         14       1    1dyz              0.228000       0.214465
                         14       1    1dz2              0.228000       0.123821

                         15       1    1fx3              1.419000       3.235302
                         15       1    1fx2y             1.419000       7.234355
                         15       1    1fx2z             1.419000       7.234355
                         15       1    1fxy2             1.419000       7.234355
                         15       1    1fxyz             1.419000      12.530271
                         15       1    1fxz2             1.419000       7.234355
                         15       1    1fy3              1.419000       3.235302
                         15       1    1fy2z             1.419000       7.234355
                         15       1    1fyz2             1.419000       7.234355
                         15       1    1fz3              1.419000       3.235302

                         16       1    1fx3              0.485000       0.288984
                         16       1    1fx2y             0.485000       0.646187
                         16       1    1fx2z             0.485000       0.646187
                         16       1    1fxy2             0.485000       0.646187
                         16       1    1fxyz             0.485000       1.119229
                         16       1    1fxz2             0.485000       0.646187
                         16       1    1fy3              0.485000       0.288984
                         16       1    1fy2z             0.485000       0.646187
                         16       1    1fyz2             0.485000       0.646187
                         16       1    1fz3              0.485000       0.288984

                         17       1    1gx4              1.011000       1.146835
                         17       1    1gx3y             1.011000       3.034241
                         17       1    1gx3z             1.011000       3.034241
                         17       1    1gx2y2            1.011000       3.917189
                         17       1    1gx2yz            1.011000       6.784770
                         17       1    1gx2z2            1.011000       3.917189
                         17       1    1gxy3             1.011000       3.034241
                         17       1    1gxy2z            1.011000       6.784770
                         17       1    1gxyz2            1.011000       6.784770
                         17       1    1gxz3             1.011000       3.034241
                         17       1    1gy4              1.011000       1.146835
                         17       1    1gy3z             1.011000       3.034241
                         17       1    1gy2z2            1.011000       3.917189
                         17       1    1gyz3             1.011000       3.034241
                         17       1    1gz4              1.011000       1.146835

     RI Auxiliary Basis Set                                                RI-5Z

       Number of orbital shell sets:                                          39
       Number of orbital shells:                                              39
       Number of primitive Cartesian functions:                               39
       Number of Cartesian basis functions:                                  287
       Number of spherical basis functions:                                  193
       Norm type:                                                              2

       Normalised Cartesian orbitals:

                        Set   Shell   Orbital            Exponent    Coefficient

                          1       1    1s              247.064000      44.413724

                          2       1    1s               53.400400      14.078892

                          3       1    1s               13.932000       5.139492

                          4       1    1s                6.151790       2.783949

                          5       1    1s                2.838270       1.558477

                          6       1    1s                1.697980       1.060131

                          7       1    1s                0.944763       0.682971

                          8       1    1s                0.555806       0.458778

                          9       1    1s                0.257433       0.257578

                         10       1    1s                0.118498       0.143944

                         11       1    1px              51.517500     196.735876
                         11       1    1py              51.517500     196.735876
                         11       1    1pz              51.517500     196.735876

                         12       1    1px              14.097200      38.936433
                         12       1    1py              14.097200      38.936433
                         12       1    1pz              14.097200      38.936433

                         13       1    1px               5.053190      10.799338
                         13       1    1py               5.053190      10.799338
                         13       1    1pz               5.053190      10.799338

                         14       1    1px               2.540790       4.572472
                         14       1    1py               2.540790       4.572472
                         14       1    1pz               2.540790       4.572472

                         15       1    1px               1.420590       2.210681
                         15       1    1py               1.420590       2.210681
                         15       1    1pz               1.420590       2.210681

                         16       1    1px               0.705145       0.921060
                         16       1    1py               0.705145       0.921060
                         16       1    1pz               0.705145       0.921060

                         17       1    1px               0.353612       0.388686
                         17       1    1py               0.353612       0.388686
                         17       1    1pz               0.353612       0.388686

                         18       1    1px               0.223793       0.219406
                         18       1    1py               0.223793       0.219406
                         18       1    1pz               0.223793       0.219406

                         19       1    1dx2             12.844800     143.443975
                         19       1    1dxy             12.844800     248.452253
                         19       1    1dxz             12.844800     248.452253
                         19       1    1dy2             12.844800     143.443975
                         19       1    1dyz             12.844800     248.452253
                         19       1    1dz2             12.844800     143.443975

                         20       1    1dx2              4.999910      27.516506
                         20       1    1dxy              4.999910      47.659986
                         20       1    1dxz              4.999910      47.659986
                         20       1    1dy2              4.999910      27.516506
                         20       1    1dyz              4.999910      47.659986
                         20       1    1dz2              4.999910      27.516506

                         21       1    1dx2              3.000150      11.256663
                         21       1    1dxy              3.000150      19.497112
                         21       1    1dxz              3.000150      19.497112
                         21       1    1dy2              3.000150      11.256663
                         21       1    1dyz              3.000150      19.497112
                         21       1    1dz2              3.000150      11.256663

                         22       1    1dx2              1.639980       3.911803
                         22       1    1dxy              1.639980       6.775441
                         22       1    1dxz              1.639980       6.775441
                         22       1    1dy2              1.639980       3.911803
                         22       1    1dyz              1.639980       6.775441
                         22       1    1dz2              1.639980       3.911803

                         23       1    1dx2              0.759964       1.018116
                         23       1    1dxy              0.759964       1.763429
                         23       1    1dxz              0.759964       1.763429
                         23       1    1dy2              0.759964       1.018116
                         23       1    1dyz              0.759964       1.763429
                         23       1    1dz2              0.759964       1.018116

                         24       1    1dx2              0.413013       0.350224
                         24       1    1dxy              0.413013       0.606606
                         24       1    1dxz              0.413013       0.606606
                         24       1    1dy2              0.413013       0.350224
                         24       1    1dyz              0.413013       0.606606
                         24       1    1dz2              0.413013       0.350224

                         25       1    1dx2              0.211749       0.108792
                         25       1    1dxy              0.211749       0.188433
                         25       1    1dxz              0.211749       0.188433
                         25       1    1dy2              0.211749       0.108792
                         25       1    1dyz              0.211749       0.188433
                         25       1    1dz2              0.211749       0.108792

                         26       1    1fx3              7.559750     139.507056
                         26       1    1fx2y             7.559750     311.947262
                         26       1    1fx2z             7.559750     311.947262
                         26       1    1fxy2             7.559750     311.947262
                         26       1    1fxyz             7.559750     540.308506
                         26       1    1fxz2             7.559750     311.947262
                         26       1    1fy3              7.559750     139.507056
                         26       1    1fy2z             7.559750     311.947262
                         26       1    1fyz2             7.559750     311.947262
                         26       1    1fz3              7.559750     139.507056

                         27       1    1fx3              3.116540      18.998444
                         27       1    1fx2y             3.116540      42.481813
                         27       1    1fx2z             3.116540      42.481813
                         27       1    1fxy2             3.116540      42.481813
                         27       1    1fxyz             3.116540      73.580658
                         27       1    1fxz2             3.116540      42.481813
                         27       1    1fy3              3.116540      18.998444
                         27       1    1fy2z             3.116540      42.481813
                         27       1    1fyz2             3.116540      42.481813
                         27       1    1fz3              3.116540      18.998444

                         28       1    1fx3              2.054360       7.438351
                         28       1    1fx2y             2.054360      16.632659
                         28       1    1fx2z             2.054360      16.632659
                         28       1    1fxy2             2.054360      16.632659
                         28       1    1fxyz             2.054360      28.808611
                         28       1    1fxz2             2.054360      16.632659
                         28       1    1fy3              2.054360       7.438351
                         28       1    1fy2z             2.054360      16.632659
                         28       1    1fyz2             2.054360      16.632659
                         28       1    1fz3              2.054360       7.438351

                         29       1    1fx3              1.114180       1.877604
                         29       1    1fx2y             1.114180       4.198450
                         29       1    1fx2z             1.114180       4.198450
                         29       1    1fxy2             1.114180       4.198450
                         29       1    1fxyz             1.114180       7.271929
                         29       1    1fxz2             1.114180       4.198450
                         29       1    1fy3              1.114180       1.877604
                         29       1    1fy2z             1.114180       4.198450
                         29       1    1fyz2             1.114180       4.198450
                         29       1    1fz3              1.114180       1.877604

                         30       1    1fx3              0.603184       0.472027
                         30       1    1fx2y             0.603184       1.055484
                         30       1    1fx2z             0.603184       1.055484
                         30       1    1fxy2             0.603184       1.055484
                         30       1    1fxyz             0.603184       1.828151
                         30       1    1fxz2             0.603184       1.055484
                         30       1    1fy3              0.603184       0.472027
                         30       1    1fy2z             0.603184       1.055484
                         30       1    1fyz2             0.603184       1.055484
                         30       1    1fz3              0.603184       0.472027

                         31       1    1fx3              0.334627       0.125377
                         31       1    1fx2y             0.334627       0.280351
                         31       1    1fx2z             0.334627       0.280351
                         31       1    1fxy2             0.334627       0.280351
                         31       1    1fxyz             0.334627       0.485582
                         31       1    1fxz2             0.334627       0.280351
                         31       1    1fy3              0.334627       0.125377
                         31       1    1fy2z             0.334627       0.280351
                         31       1    1fyz2             0.334627       0.280351
                         31       1    1fz3              0.334627       0.125377

                         32       1    1gx4              4.244100      59.271490
                         32       1    1gx3y             4.244100     156.817624
                         32       1    1gx3z             4.244100     156.817624
                         32       1    1gx2y2            4.244100     202.450681
                         32       1    1gx2yz            4.244100     350.654866
                         32       1    1gx2z2            4.244100     202.450681
                         32       1    1gxy3             4.244100     156.817624
                         32       1    1gxy2z            4.244100     350.654866
                         32       1    1gxyz2            4.244100     350.654866
                         32       1    1gxz3             4.244100     156.817624
                         32       1    1gy4              4.244100      59.271490
                         32       1    1gy3z             4.244100     156.817624
                         32       1    1gy2z2            4.244100     202.450681
                         32       1    1gyz3             4.244100     156.817624
                         32       1    1gz4              4.244100      59.271490

                         33       1    1gx4              2.155990       9.203732
                         33       1    1gx3y             2.155990      24.350786
                         33       1    1gx3z             2.155990      24.350786
                         33       1    1gx2y2            2.155990      31.436730
                         33       1    1gx2yz            2.155990      54.450013
                         33       1    1gx2z2            2.155990      31.436730
                         33       1    1gxy3             2.155990      24.350786
                         33       1    1gxy2z            2.155990      54.450013
                         33       1    1gxyz2            2.155990      54.450013
                         33       1    1gxz3             2.155990      24.350786
                         33       1    1gy4              2.155990       9.203732
                         33       1    1gy3z             2.155990      24.350786
                         33       1    1gy2z2            2.155990      31.436730
                         33       1    1gyz3             2.155990      24.350786
                         33       1    1gz4              2.155990       9.203732

                         34       1    1gx4              1.023150       1.185137
                         34       1    1gx3y             1.023150       3.135578
                         34       1    1gx3z             1.023150       3.135578
                         34       1    1gx2y2            1.023150       4.048013
                         34       1    1gx2yz            1.023150       7.011365
                         34       1    1gx2z2            1.023150       4.048013
                         34       1    1gxy3             1.023150       3.135578
                         34       1    1gxy2z            1.023150       7.011365
                         34       1    1gxyz2            1.023150       7.011365
                         34       1    1gxz3             1.023150       3.135578
                         34       1    1gy4              1.023150       1.185137
                         34       1    1gy3z             1.023150       3.135578
                         34       1    1gy2z2            1.023150       4.048013
                         34       1    1gyz3             1.023150       3.135578
                         34       1    1gz4              1.023150       1.185137

                         35       1    1gx4              0.593235       0.264734
                         35       1    1gx3y             0.593235       0.700419
                         35       1    1gx3z             0.593235       0.700419
                         35       1    1gx2y2            0.593235       0.904237
                         35       1    1gx2yz            0.593235       1.566185
                         35       1    1gx2z2            0.593235       0.904237
                         35       1    1gxy3             0.593235       0.700419
                         35       1    1gxy2z            0.593235       1.566185
                         35       1    1gxyz2            0.593235       1.566185
                         35       1    1gxz3             0.593235       0.700419
                         35       1    1gy4              0.593235       0.264734
                         35       1    1gy3z             0.593235       0.700419
                         35       1    1gy2z2            0.593235       0.904237
                         35       1    1gyz3             0.593235       0.700419
                         35       1    1gz4              0.593235       0.264734

                         36       1    1hx5              2.702190      18.768121
                         36       1    1hx4y             2.702190      56.304362
                         36       1    1hx4z             2.702190      56.304362
                         36       1    1hx3y2            2.702190      86.006333
                         36       1    1hx3yz            2.702190     148.967339
                         36       1    1hx3z2            2.702190      86.006333
                         36       1    1hx2y3            2.702190      86.006333
                         36       1    1hx2y2z           2.702190     192.316007
                         36       1    1hx2yz2           2.702190     192.316007
                         36       1    1hx2z3            2.702190      86.006333
                         36       1    1hxy4             2.702190      56.304362
                         36       1    1hxy3z            2.702190     148.967339
                         36       1    1hxy2z2           2.702190     192.316007
                         36       1    1hxyz3            2.702190     148.967339
                         36       1    1hxz4             2.702190      56.304362
                         36       1    1hy5              2.702190      18.768121
                         36       1    1hy4z             2.702190      56.304362
                         36       1    1hy3z2            2.702190      86.006333
                         36       1    1hy2z3            2.702190      86.006333
                         36       1    1hyz4             2.702190      56.304362
                         36       1    1hz5              2.702190      18.768121

                         37       1    1hx5              1.508080       2.819833
                         37       1    1hx4y             1.508080       8.459499
                         37       1    1hx4z             1.508080       8.459499
                         37       1    1hx3y2            1.508080      12.922099
                         37       1    1hx3yz            1.508080      22.381731
                         37       1    1hx3z2            1.508080      12.922099
                         37       1    1hx2y3            1.508080      12.922099
                         37       1    1hx2y2z           1.508080      28.894691
                         37       1    1hx2yz2           1.508080      28.894691
                         37       1    1hx2z3            1.508080      12.922099
                         37       1    1hxy4             1.508080       8.459499
                         37       1    1hxy3z            1.508080      22.381731
                         37       1    1hxy2z2           1.508080      28.894691
                         37       1    1hxyz3            1.508080      22.381731
                         37       1    1hxz4             1.508080       8.459499
                         37       1    1hy5              1.508080       2.819833
                         37       1    1hy4z             1.508080       8.459499
                         37       1    1hy3z2            1.508080      12.922099
                         37       1    1hy2z3            1.508080      12.922099
                         37       1    1hyz4             1.508080       8.459499
                         37       1    1hz5              1.508080       2.819833

                         38       1    1hx5              0.860125       0.454642
                         38       1    1hx4y             0.860125       1.363925
                         38       1    1hx4z             0.860125       1.363925
                         38       1    1hx3y2            0.860125       2.083430
                         38       1    1hx3yz            0.860125       3.608607
                         38       1    1hx3z2            0.860125       2.083430
                         38       1    1hx2y3            0.860125       2.083430
                         38       1    1hx2y2z           0.860125       4.658691
                         38       1    1hx2yz2           0.860125       4.658691
                         38       1    1hx2z3            0.860125       2.083430
                         38       1    1hxy4             0.860125       1.363925
                         38       1    1hxy3z            0.860125       3.608607
                         38       1    1hxy2z2           0.860125       4.658691
                         38       1    1hxyz3            0.860125       3.608607
                         38       1    1hxz4             0.860125       1.363925
                         38       1    1hy5              0.860125       0.454642
                         38       1    1hy4z             0.860125       1.363925
                         38       1    1hy3z2            0.860125       2.083430
                         38       1    1hy2z3            0.860125       2.083430
                         38       1    1hyz4             0.860125       1.363925
                         38       1    1hz5              0.860125       0.454642

                         39       1    1ix6              1.702580       3.291024
                         39       1    1ix5y             1.702580      10.915092
                         39       1    1ix5z             1.702580      10.915092
                         39       1    1ix4y2            1.702580      18.905493
                         39       1    1ix4yz            1.702580      32.745275
                         39       1    1ix4z2            1.702580      18.905493
                         39       1    1ix3y3            1.702580      22.369282
                         39       1    1ix3y2z           1.702580      50.019234
                         39       1    1ix3yz2           1.702580      50.019234
                         39       1    1ix3z3            1.702580      22.369282
                         39       1    1ix2y4            1.702580      18.905493
                         39       1    1ix2y3z           1.702580      50.019234
                         39       1    1ix2y2z2          1.702580      64.574554
                         39       1    1ix2yz3           1.702580      50.019234
                         39       1    1ix2z4            1.702580      18.905493
                         39       1    1ixy5             1.702580      10.915092
                         39       1    1ixy4z            1.702580      32.745275
                         39       1    1ixy3z2           1.702580      50.019234
                         39       1    1ixy2z3           1.702580      50.019234
                         39       1    1ixyz4            1.702580      32.745275
                         39       1    1ixz5             1.702580      10.915092
                         39       1    1iy6              1.702580       3.291024
                         39       1    1iy5z             1.702580      10.915092
                         39       1    1iy4z2            1.702580      18.905493
                         39       1    1iy3z3            1.702580      22.369282
                         39       1    1iy2z4            1.702580      18.905493
                         39       1    1iyz5             1.702580      10.915092
                         39       1    1iz6              1.702580       3.291024

     The atoms of this atomic kind are PAW atoms (GAPW):
       Hard Gaussian function radius:                                      1.512
       Rho0 radius:                                                        1.512
       Maximum GTO radius used for PAW projector construction:            24.566

     GAPW Soft Basis Set                                          def2-QZVP_soft

       Number of orbital shell sets:                                          17
       Number of orbital shells:                                              17
       Number of primitive Cartesian functions:                               15
       Number of Cartesian basis functions:                                   72
       Number of spherical basis functions:                                   57
       Norm type:                                                              2

       Normalised Cartesian orbitals:

                        Set   Shell   Orbital            Exponent    Coefficient

                          1       1    1s         

                          2       1    1s         

                          3       1    1s         

                          4       1    1s                2.290502       1.326961

                          5       1    1s                0.696733       0.543513

                          6       1    1s                0.275993       0.271384

                          7       1    1s                0.107399       0.133709

                          8       1    1px               2.840700       1.549652
                                                         1.122714       1.157594
                          8       1    1py               2.840700       1.549652
                                                         1.122714       1.157594
                          8       1    1pz               2.840700       1.549652
                                                         1.122714       1.157594

                          9       1    1px               0.460507       0.540736
                          9       1    1py               0.460507       0.540736
                          9       1    1pz               0.460507       0.540736

                         10       1    1px               0.189375       0.178071
                         10       1    1py               0.189375       0.178071
                         10       1    1pz               0.189375       0.178071

                         11       1    1px               0.075984       0.056865
                         11       1    1py               0.075984       0.056865
                         11       1    1pz               0.075984       0.056865

                         12       1    1dx2              1.848000       4.821009
                         12       1    1dxy              1.848000       8.350232
                         12       1    1dxz              1.848000       8.350232
                         12       1    1dy2              1.848000       4.821009
                         12       1    1dyz              1.848000       8.350232
                         12       1    1dz2              1.848000       4.821009

                         13       1    1dx2              0.649000       0.772392
                         13       1    1dxy              0.649000       1.337822
                         13       1    1dxz              0.649000       1.337822
                         13       1    1dy2              0.649000       0.772392
                         13       1    1dyz              0.649000       1.337822
                         13       1    1dz2              0.649000       0.772392

                         14       1    1dx2              0.228000       0.123821
                         14       1    1dxy              0.228000       0.214465
                         14       1    1dxz              0.228000       0.214465
                         14       1    1dy2              0.228000       0.123821
                         14       1    1dyz              0.228000       0.214465
                         14       1    1dz2              0.228000       0.123821

                         15       1    1fx3              1.419000       3.235302
                         15       1    1fx2y             1.419000       7.234355
                         15       1    1fx2z             1.419000       7.234355
                         15       1    1fxy2             1.419000       7.234355
                         15       1    1fxyz             1.419000      12.530271
                         15       1    1fxz2             1.419000       7.234355
                         15       1    1fy3              1.419000       3.235302
                         15       1    1fy2z             1.419000       7.234355
                         15       1    1fyz2             1.419000       7.234355
                         15       1    1fz3              1.419000       3.235302

                         16       1    1fx3              0.485000       0.288984
                         16       1    1fx2y             0.485000       0.646187
                         16       1    1fx2z             0.485000       0.646187
                         16       1    1fxy2             0.485000       0.646187
                         16       1    1fxyz             0.485000       1.119229
                         16       1    1fxz2             0.485000       0.646187
                         16       1    1fy3              0.485000       0.288984
                         16       1    1fy2z             0.485000       0.646187
                         16       1    1fyz2             0.485000       0.646187
                         16       1    1fz3              0.485000       0.288984

                         17       1    1gx4              1.011000       1.146835
                         17       1    1gx3y             1.011000       3.034241
                         17       1    1gx3z             1.011000       3.034241
                         17       1    1gx2y2            1.011000       3.917189
                         17       1    1gx2yz            1.011000       6.784770
                         17       1    1gx2z2            1.011000       3.917189
                         17       1    1gxy3             1.011000       3.034241
                         17       1    1gxy2z            1.011000       6.784770
                         17       1    1gxyz2            1.011000       6.784770
                         17       1    1gxz3             1.011000       3.034241
                         17       1    1gy4              1.011000       1.146835
                         17       1    1gy3z             1.011000       3.034241
                         17       1    1gy2z2            1.011000       3.917189
                         17       1    1gyz3             1.011000       3.034241
                         17       1    1gz4              1.011000       1.146835

     AE Potential information for                                            ALL

       Description:                                       All-electron potential
                                          Krack, Parrinello, PCCP 2, 2105 (2000)

       Gaussian exponent of the core charge distribution:               4.109048
       Electronic configuration (s p d ...):                           4   2   0

  2. Atomic kind: N                                     Number of atoms:       1

     Orbital Basis Set                                                 def2-QZVP

       Number of orbital shell sets:                                          17
       Number of orbital shells:                                              17
       Number of primitive Cartesian functions:                               29
       Number of Cartesian basis functions:                                   72
       Number of spherical basis functions:                                   57
       Norm type:                                                              2

       Normalised Cartesian orbitals:

                        Set   Shell   Orbital            Exponent    Coefficient

                          1       1    1s            90726.889210       0.264461
                                                     13590.528801       0.494937
                                                      3092.988378       0.855170
                                                       875.998764       1.389874
                                                       285.744700       2.121698
                                                       103.119134       2.979703
                                                        40.128557       3.622800
                                                        16.528096       3.451840

                          2       1    1s               69.390961       1.621997
                                                        20.428201       6.338076

                          3       1    1s                7.129259       3.109520

                          4       1    1s                3.132430       1.678113

                          5       1    1s                0.987558       0.706044

                          6       1    1s                0.387657       0.350143

                          7       1    1s                0.149099       0.171008

                          8       1    1px             150.057427      -1.834160
                                                        35.491599      -2.406167
                                                        11.247864      -2.652970
                                                         4.090031      -2.482665
                                                         1.622057      -1.818128
                          8       1    1py             150.057427      -1.834160
                                                        35.491599      -2.406167
                                                        11.247864      -2.652970
                                                         4.090031      -2.482665
                                                         1.622057      -1.818128
                          8       1    1pz             150.057427      -1.834160
                                                        35.491599      -2.406167
                                                        11.247864      -2.652970
                                                         4.090031      -2.482665
                                                         1.622057      -1.818128

                          9       1    1px               0.664423       0.855058
                          9       1    1py               0.664423       0.855058
                          9       1    1pz               0.664423       0.855058

                         10       1    1px               0.270998       0.278706
                         10       1    1py               0.270998       0.278706
                         10       1    1pz               0.270998       0.278706

                         11       1    1px               0.106887       0.087116
                         11       1    1py               0.106887       0.087116
                         11       1    1pz               0.106887       0.087116

                         12       1    1dx2              2.837000      10.207357
                         12       1    1dxy              2.837000      17.679661
                         12       1    1dxz              2.837000      17.679661
                         12       1    1dy2              2.837000      10.207357
                         12       1    1dyz              2.837000      17.679661
                         12       1    1dz2              2.837000      10.207357

                         13       1    1dx2              0.968000       1.554860
                         13       1    1dxy              0.968000       2.693097
                         13       1    1dxz              0.968000       2.693097
                         13       1    1dy2              0.968000       1.554860
                         13       1    1dyz              0.968000       2.693097
                         13       1    1dz2              0.968000       1.554860

                         14       1    1dx2              0.335000       0.242794
                         14       1    1dxy              0.335000       0.420531
                         14       1    1dxz              0.335000       0.420531
                         14       1    1dy2              0.335000       0.242794
                         14       1    1dyz              0.335000       0.420531
                         14       1    1dz2              0.335000       0.242794

                         15       1    1fx3              2.027000       7.217310
                         15       1    1fx2y             2.027000      16.138397
                         15       1    1fx2z             2.027000      16.138397
                         15       1    1fxy2             2.027000      16.138397
                         15       1    1fxyz             2.027000      27.952523
                         15       1    1fxz2             2.027000      16.138397
                         15       1    1fy3              2.027000       7.217310
                         15       1    1fy2z             2.027000      16.138397
                         15       1    1fyz2             2.027000      16.138397
                         15       1    1fz3              2.027000       7.217310

                         16       1    1fx3              0.685000       0.628432
                         16       1    1fx2y             0.685000       1.405216
                         16       1    1fx2z             0.685000       1.405216
                         16       1    1fxy2             0.685000       1.405216
                         16       1    1fxyz             0.685000       2.433906
                         16       1    1fxz2             0.685000       1.405216
                         16       1    1fy3              0.685000       0.628432
                         16       1    1fy2z             0.685000       1.405216
                         16       1    1fyz2             0.685000       1.405216
                         16       1    1fz3              0.685000       0.628432

                         17       1    1gx4              1.427000       2.958703
                         17       1    1gx3y             1.427000       7.827992
                         17       1    1gx3z             1.427000       7.827992
                         17       1    1gx2y2            1.427000      10.105894
                         17       1    1gx2yz            1.427000      17.503922
                         17       1    1gx2z2            1.427000      10.105894
                         17       1    1gxy3             1.427000       7.827992
                         17       1    1gxy2z            1.427000      17.503922
                         17       1    1gxyz2            1.427000      17.503922
                         17       1    1gxz3             1.427000       7.827992
                         17       1    1gy4              1.427000       2.958703
                         17       1    1gy3z             1.427000       7.827992
                         17       1    1gy2z2            1.427000      10.105894
                         17       1    1gyz3             1.427000       7.827992
                         17       1    1gz4              1.427000       2.958703

     RI Auxiliary Basis Set                                                RI-5Z

       Number of orbital shell sets:                                          39
       Number of orbital shells:                                              39
       Number of primitive Cartesian functions:                               39
       Number of Cartesian basis functions:                                  287
       Number of spherical basis functions:                                  193
       Norm type:                                                              2

       Normalised Cartesian orbitals:

                        Set   Shell   Orbital            Exponent    Coefficient

                          1       1    1s              330.814000      55.283815

                          2       1    1s               72.692500      17.743010

                          3       1    1s               18.515300       6.361480

                          4       1    1s                8.569100       3.569534

                          5       1    1s                3.809660       1.943456

                          6       1    1s                2.248340       1.308599

                          7       1    1s                1.312410       0.873901

                          8       1    1s                0.758637       0.579343

                          9       1    1s                0.378879       0.344180

                         10       1    1s                0.175888       0.193570

                         11       1    1px              66.987000     273.167010
                         11       1    1py              66.987000     273.167010
                         11       1    1pz              66.987000     273.167010

                         12       1    1px              18.749800      55.614225
                         12       1    1py              18.749800      55.614225
                         12       1    1pz              18.749800      55.614225

                         13       1    1px               7.480640      17.634515
                         13       1    1py               7.480640      17.634515
                         13       1    1pz               7.480640      17.634515

                         14       1    1px               3.761240       7.466274
                         14       1    1py               3.761240       7.466274
                         14       1    1pz               3.761240       7.466274

                         15       1    1px               2.075610       3.551177
                         15       1    1py               2.075610       3.551177
                         15       1    1pz               2.075610       3.551177

                         16       1    1px               0.990652       1.408775
                         16       1    1py               0.990652       1.408775
                         16       1    1pz               0.990652       1.408775

                         17       1    1px               0.519429       0.628562
                         17       1    1py               0.519429       0.628562
                         17       1    1pz               0.519429       0.628562

                         18       1    1px               0.311991       0.332367
                         18       1    1py               0.311991       0.332367
                         18       1    1pz               0.311991       0.332367

                         19       1    1dx2             17.120900     237.181597
                         19       1    1dxy             17.120900     410.810577
                         19       1    1dxz             17.120900     410.810577
                         19       1    1dy2             17.120900     237.181597
                         19       1    1dyz             17.120900     410.810577
                         19       1    1dz2             17.120900     237.181597

                         20       1    1dx2              5.810520      35.791979
                         20       1    1dxy              5.810520      61.993525
                         20       1    1dxz              5.810520      61.993525
                         20       1    1dy2              5.810520      35.791979
                         20       1    1dyz              5.810520      61.993525
                         20       1    1dz2              5.810520      35.791979

                         21       1    1dx2              3.550630      15.116246
                         21       1    1dxy              3.550630      26.182105
                         21       1    1dxz              3.550630      26.182105
                         21       1    1dy2              3.550630      15.116246
                         21       1    1dyz              3.550630      26.182105
                         21       1    1dz2              3.550630      15.116246

                         22       1    1dx2              2.262180       6.868027
                         22       1    1dxy              2.262180      11.895771
                         22       1    1dxz              2.262180      11.895771
                         22       1    1dy2              2.262180       6.868027
                         22       1    1dyz              2.262180      11.895771
                         22       1    1dz2              2.262180       6.868027

                         23       1    1dx2              1.105370       1.961317
                         23       1    1dxy              1.105370       3.397101
                         23       1    1dxz              1.105370       3.397101
                         23       1    1dy2              1.105370       1.961317
                         23       1    1dyz              1.105370       3.397101
                         23       1    1dz2              1.105370       1.961317

                         24       1    1dx2              0.568580       0.612766
                         24       1    1dxy              0.568580       1.061342
                         24       1    1dxz              0.568580       1.061342
                         24       1    1dy2              0.568580       0.612766
                         24       1    1dyz              0.568580       1.061342
                         24       1    1dz2              0.568580       0.612766

                         25       1    1dx2              0.281938       0.179547
                         25       1    1dxy              0.281938       0.310985
                         25       1    1dxz              0.281938       0.310985
                         25       1    1dy2              0.281938       0.179547
                         25       1    1dyz              0.281938       0.310985
                         25       1    1dz2              0.281938       0.179547

                         26       1    1fx3             10.195600     273.453335
                         26       1    1fx2y            10.195600     611.460245
                         26       1    1fx2z            10.195600     611.460245
                         26       1    1fxy2            10.195600     611.460245
                         26       1    1fxyz            10.195600    1059.080212
                         26       1    1fxz2            10.195600     611.460245
                         26       1    1fy3             10.195600     273.453335
                         26       1    1fy2z            10.195600     611.460245
                         26       1    1fyz2            10.195600     611.460245
                         26       1    1fz3             10.195600     273.453335

                         27       1    1fx3              4.611490      45.877243
                         27       1    1fx2y             4.611490     102.584634
                         27       1    1fx2z             4.611490     102.584634
                         27       1    1fxy2             4.611490     102.584634
                         27       1    1fxyz             4.611490     177.681798
                         27       1    1fxz2             4.611490     102.584634
                         27       1    1fy3              4.611490      45.877243
                         27       1    1fy2z             4.611490     102.584634
                         27       1    1fyz2             4.611490     102.584634
                         27       1    1fz3              4.611490      45.877243

                         28       1    1fx3              2.818460      15.152391
                         28       1    1fx2y             2.818460      33.881776
                         28       1    1fx2z             2.818460      33.881776
                         28       1    1fxy2             2.818460      33.881776
                         28       1    1fxyz             2.818460      58.684958
                         28       1    1fxz2             2.818460      33.881776
                         28       1    1fy3              2.818460      15.152391
                         28       1    1fy2z             2.818460      33.881776
                         28       1    1fyz2             2.818460      33.881776
                         28       1    1fz3              2.818460      15.152391

                         29       1    1fx3              1.544330       3.913990
                         29       1    1fx2y             1.544330       8.751947
                         29       1    1fx2z             1.544330       8.751947
                         29       1    1fxy2             1.544330       8.751947
                         29       1    1fxyz             1.544330      15.158817
                         29       1    1fxz2             1.544330       8.751947
                         29       1    1fy3              1.544330       3.913990
                         29       1    1fy2z             1.544330       8.751947
                         29       1    1fyz2             1.544330       8.751947
                         29       1    1fz3              1.544330       3.913990

                         30       1    1fx3              0.895075       1.147197
                         30       1    1fx2y             0.895075       2.565211
                         30       1    1fx2z             0.895075       2.565211
                         30       1    1fxy2             0.895075       2.565211
                         30       1    1fxyz             0.895075       4.443076
                         30       1    1fxz2             0.895075       2.565211
                         30       1    1fy3              0.895075       1.147197
                         30       1    1fy2z             0.895075       2.565211
                         30       1    1fyz2             0.895075       2.565211
                         30       1    1fz3              0.895075       1.147197

                         31       1    1fx3              0.470440       0.269829
                         31       1    1fx2y             0.470440       0.603356
                         31       1    1fx2z             0.470440       0.603356
                         31       1    1fxy2             0.470440       0.603356
                         31       1    1fxyz             0.470440       1.045044
                         31       1    1fxz2             0.470440       0.603356
                         31       1    1fy3              0.470440       0.269829
                         31       1    1fy2z             0.470440       0.603356
                         31       1    1fyz2             0.470440       0.603356
                         31       1    1fz3              0.470440       0.269829

                         32       1    1gx4              5.478920     119.631780
                         32       1    1gx3y             5.478920     316.515938
                         32       1    1gx3z             5.478920     316.515938
                         32       1    1gx2y2            5.478920     408.620318
                         32       1    1gx2yz            5.478920     707.751152
                         32       1    1gx2z2            5.478920     408.620318
                         32       1    1gxy3             5.478920     316.515938
                         32       1    1gxy2z            5.478920     707.751152
                         32       1    1gxyz2            5.478920     707.751152
                         32       1    1gxz3             5.478920     316.515938
                         32       1    1gy4              5.478920     119.631780
                         32       1    1gy3z             5.478920     316.515938
                         32       1    1gy2z2            5.478920     408.620318
                         32       1    1gyz3             5.478920     316.515938
                         32       1    1gz4              5.478920     119.631780

                         33       1    1gx4              3.053470      23.967238
                         33       1    1gx3y             3.053470      63.411351
                         33       1    1gx3z             3.053470      63.411351
                         33       1    1gx2y2            3.053470      81.863702
                         33       1    1gx2yz            3.053470     141.792090
                         33       1    1gx2z2            3.053470      81.863702
                         33       1    1gxy3             3.053470      63.411351
                         33       1    1gxy2z            3.053470     141.792090
                         33       1    1gxyz2            3.053470     141.792090
                         33       1    1gxz3             3.053470      63.411351
                         33       1    1gy4              3.053470      23.967238
                         33       1    1gy3z             3.053470      63.411351
                         33       1    1gy2z2            3.053470      81.863702
                         33       1    1gyz3             3.053470      63.411351
                         33       1    1gz4              3.053470      23.967238

                         34       1    1gx4              1.482770       3.287671
                         34       1    1gx3y             1.482770       8.698360
                         34       1    1gx3z             1.482770       8.698360
                         34       1    1gx2y2            1.482770      11.229534
                         34       1    1gx2yz            1.482770      19.450124
                         34       1    1gx2z2            1.482770      11.229534
                         34       1    1gxy3             1.482770       8.698360
                         34       1    1gxy2z            1.482770      19.450124
                         34       1    1gxyz2            1.482770      19.450124
                         34       1    1gxz3             1.482770       8.698360
                         34       1    1gy4              1.482770       3.287671
                         34       1    1gy3z             1.482770       8.698360
                         34       1    1gy2z2            1.482770      11.229534
                         34       1    1gyz3             1.482770       8.698360
                         34       1    1gz4              1.482770       3.287671

                         35       1    1gx4              0.844875       0.700027
                         35       1    1gx3y             0.844875       1.852097
                         35       1    1gx3z             0.844875       1.852097
                         35       1    1gx2y2            0.844875       2.391047
                         35       1    1gx2yz            0.844875       4.141415
                         35       1    1gx2z2            0.844875       2.391047
                         35       1    1gxy3             0.844875       1.852097
                         35       1    1gxy2z            0.844875       4.141415
                         35       1    1gxyz2            0.844875       4.141415
                         35       1    1gxz3             0.844875       1.852097
                         35       1    1gy4              0.844875       0.700027
                         35       1    1gy3z             0.844875       1.852097
                         35       1    1gy2z2            0.844875       2.391047
                         35       1    1gyz3             0.844875       1.852097
                         35       1    1gz4              0.844875       0.700027

                         36       1    1hx5              3.904570      62.080772
                         36       1    1hx4y             3.904570     186.242316
                         36       1    1hx4z             3.904570     186.242316
                         36       1    1hx3y2            3.904570     284.489837
                         36       1    1hx3yz            3.904570     492.750852
                         36       1    1hx3z2            3.904570     284.489837
                         36       1    1hx2y3            3.904570     284.489837
                         36       1    1hx2y2z           3.904570     636.138614
                         36       1    1hx2yz2           3.904570     636.138614
                         36       1    1hx2z3            3.904570     284.489837
                         36       1    1hxy4             3.904570     186.242316
                         36       1    1hxy3z            3.904570     492.750852
                         36       1    1hxy2z2           3.904570     636.138614
                         36       1    1hxyz3            3.904570     492.750852
                         36       1    1hxz4             3.904570     186.242316
                         36       1    1hy5              3.904570      62.080772
                         36       1    1hy4z             3.904570     186.242316
                         36       1    1hy3z2            3.904570     284.489837
[...]
   
  The GW quasiparticle energies are calculated according to: 
  E_GW = E_SCF + Z * ( Sigc(E_SCF) + Sigx - vxc )
   
  The energy unit of the following table is eV.  Sigc_fit is a very conservative
  estimate of the statistical error of the fitting.
   
            MO      E_SCF       Sigc   Sigc_fit   Sigx-vxc          Z       E_GW
    12 ( occ )    -21.646      6.755      0.000    -10.312      1.000    -25.203
    13 ( occ )    -11.356      3.165      0.000     -6.043      1.000    -14.234
    14 ( occ )     -8.213      3.643      0.000     -6.446      1.000    -11.016
    15 ( occ )     -8.213      3.643      0.000     -6.446      1.000    -11.016
    16 ( occ )     -7.990      4.034      0.000     -6.719      1.000    -10.674
    17 ( occ )     -7.142      6.950      0.000    -10.247      1.000    -10.439
    18 ( occ )     -7.142      6.950      0.000    -10.247      1.000    -10.439
    19 ( occ )     -6.997      4.572      0.000     -7.642      1.000    -10.068
    20 ( occ )     -6.997      4.572      0.000     -7.642      1.000    -10.068
    21 ( occ )     -6.708      3.857      0.000     -6.932      1.000     -9.782
    22 ( vir )     -4.036     -1.774      0.000      4.101      1.000     -1.709
    23 ( vir )     -1.537     -1.358      0.000      3.576      1.000      0.682
    24 ( vir )     -1.537     -1.358      0.000      3.576      1.000      0.682
    25 ( vir )      0.719     -0.567      0.000      1.787      1.000      1.940
    26 ( vir )      0.830     -0.518      0.000      1.536      1.000      1.847
    27 ( vir )      0.859     -1.674      0.000      3.659      1.000      2.844
    28 ( vir )      0.859     -1.674      0.000      3.659      1.000      2.844
    29 ( vir )      2.495     -1.085      0.000      2.865      1.000      4.275
    30 ( vir )      2.495     -1.085      0.000      2.865      1.000      4.275
    31 ( vir )      2.922     -0.842      0.000      2.577      1.000      4.657
   
  GW HOMO-LUMO gap (eV)                                                     8.07
  

  Total RI-RPA Time=                                                 1743.254488
  RI-RPA energy  =                                             -1.74888516741334

  Total EXX Time=                                                     110.637348
  EXX energy  =                                               -77.20303683050520

 ENERGY| Total FORCE_EVAL ( QS ) energy (a.u.):            -1732.996951422825987


 -------------------------------------------------------------------------------
 -                                                                             -
 -                                DBCSR STATISTICS                             -
 -                                                                             -
 -------------------------------------------------------------------------------
 COUNTER                                    TOTAL       BLAS       SMM       ACC
 flops    84 x    21 x    84               296352     100.0%      0.0%      0.0%
 flops    84 x    21 x    57               402192     100.0%      0.0%      0.0%
 flops    57 x    21 x    84               402192     100.0%      0.0%      0.0%
 flops    57 x    21 x    57               545832     100.0%      0.0%      0.0%
 flops    84 x    57 x    84               804384     100.0%      0.0%      0.0%
 flops    84 x    57 x    57              1091664     100.0%      0.0%      0.0%
 flops    57 x   141 x    84              1350216     100.0%      0.0%      0.0%
 flops   141 x    57 x    84              1350216     100.0%      0.0%      0.0%
 flops    57 x    57 x    84              1637496     100.0%      0.0%      0.0%
 flops    57 x   141 x    57              1832436     100.0%      0.0%      0.0%
 flops   141 x    57 x    57              1832436     100.0%      0.0%      0.0%
 flops    84 x    57 x    21              2212056     100.0%      0.0%      0.0%
 flops    57 x    84 x    21              2212056     100.0%      0.0%      0.0%
 flops    57 x    57 x    57              2222316     100.0%      0.0%      0.0%
 flops    84 x    84 x    21              3259872     100.0%      0.0%      0.0%
 flops   141 x   141 x    84              3340008     100.0%      0.0%      0.0%
 flops    57 x    57 x    21              4503114     100.0%      0.0%      0.0%
 flops   141 x   141 x    57              4532868     100.0%      0.0%      0.0%
 flops   193 x    57 x    84           1034974080     100.0%      0.0%      0.0%
 flops   193 x    57 x    57           1404607680     100.0%      0.0%      0.0%
 flops   193 x   193 x   193           1610348768     100.0%      0.0%      0.0%
 flops   193 x    57 x   193           2377976160     100.0%      0.0%      0.0%
 flops   193 x   141 x    84           2560199040     100.0%      0.0%      0.0%
 flops   716 x   193 x   193           2987071808     100.0%      0.0%      0.0%
 flops   193 x   716 x   193           2987071808     100.0%      0.0%      0.0%
 flops   193 x   193 x   716           2987071808     100.0%      0.0%      0.0%
 flops    84 x  3780 x    84           2987228160     100.0%      0.0%      0.0%
 flops   193 x   141 x    57           3474555840     100.0%      0.0%      0.0%
 flops    84 x  2565 x    84           4054095360     100.0%      0.0%      0.0%
 flops    84 x  3780 x    57           4054095360     100.0%      0.0%      0.0%
 flops    57 x  3780 x    84           4126489920     100.0%      0.0%      0.0%
 flops   193 x    57 x   716           4410960960     100.0%      0.0%      0.0%
 flops   909 x    57 x    84           4874567040     100.0%      0.0%      0.0%
 flops    84 x  2565 x    57           5501986560     100.0%      0.0%      0.0%
 flops   716 x   716 x   193           5540786048     100.0%      0.0%      0.0%
 flops   716 x   193 x   716           5540786048     100.0%      0.0%      0.0%
 flops   193 x   716 x   716           5540786048     100.0%      0.0%      0.0%
 flops    57 x  2565 x    84           5600236320     100.0%      0.0%      0.0%
 flops    57 x  3780 x    57           5600236320     100.0%      0.0%      0.0%
 flops   193 x   141 x   193           5882362080     100.0%      0.0%      0.0%
 flops   909 x    57 x    57           6615483840     100.0%      0.0%      0.0%
 flops    57 x  2565 x    57           7600320720     100.0%      0.0%      0.0%
 flops   716 x   716 x   716          10277727488     100.0%      0.0%      0.0%
 flops   193 x   141 x   716          10911324480     100.0%      0.0%      0.0%
 flops   909 x    57 x   193          11199898080     100.0%      0.0%      0.0%
 flops   909 x   141 x    84          12058139520     100.0%      0.0%      0.0%
 flops   909 x   141 x    57          16364617920     100.0%      0.0%      0.0%
 flops   909 x    57 x   716          20774940480     100.0%      0.0%      0.0%
 flops   909 x   141 x   193          27705011040     100.0%      0.0%      0.0%
 flops    84 x  3864 x    84          33589721088     100.0%      0.0%      0.0%
 flops    84 x  2622 x    84          45586050048     100.0%      0.0%      0.0%
 flops    84 x  3864 x    57          45586050048     100.0%      0.0%      0.0%
 flops    57 x  3864 x    84          46400086656     100.0%      0.0%      0.0%
 flops   909 x   141 x   716          51390642240     100.0%      0.0%      0.0%
 flops    84 x  2622 x    57          61866782208     100.0%      0.0%      0.0%
 flops    57 x  2622 x    84          62971546176     100.0%      0.0%      0.0%
 flops    57 x  3864 x    57          62971546176     100.0%      0.0%      0.0%
 flops   193 x   193 x  1617          80951314752     100.0%      0.0%      0.0%
 flops   193 x   193 x  1650          82603382400     100.0%      0.0%      0.0%
 flops    57 x  2622 x    57          85461384096     100.0%      0.0%      0.0%
 flops   716 x   193 x  1617         150158397312     100.0%      0.0%      0.0%
 flops   193 x   716 x  1617         150158397312     100.0%      0.0%      0.0%
 flops   716 x   193 x  1650         153222854400     100.0%      0.0%      0.0%
 flops   193 x   716 x  1650         153222854400     100.0%      0.0%      0.0%
 flops   716 x   716 x  1617         278532156672     100.0%      0.0%      0.0%
 flops   716 x   716 x  1650         284216486400     100.0%      0.0%      0.0%
 flops inhomo. stacks                           0       0.0%      0.0%      0.0%
 flops total                         2.037569E+12     100.0%      0.0%      0.0%
 flops max/rank                    209.337128E+09     100.0%      0.0%      0.0%
 matmuls inhomo. stacks                         0       0.0%      0.0%      0.0%
 matmuls total                              31938     100.0%      0.0%      0.0%
 number of processed stacks                 17370     100.0%      0.0%      0.0%
 average stack size                                     1.8       0.0       0.0
 marketing flops                     2.049690E+12
 -------------------------------------------------------------------------------
 # multiplications                            911
 max memory usage/rank               1.206960E+09
 # max total images/rank                        3
 # max 3D layers                                1
 # MPI messages exchanged                  395808
 MPI messages size (bytes):
  total size                        21.578852E+09
  min size                           0.000000E+00
  max size                           5.206752E+06
  average size                      54.518484E+03
 MPI breakdown and total messages size (bytes):
             size <=      128              354514                        0
       128 < size <=     8192                   0                        0
      8192 < size <=    32768                3587                 91451808
     32768 < size <=   131072               16875               1448240256
    131072 < size <=  4194304               19320              12166842240
   4194304 < size <= 16777216                1512               7872609024
  16777216 < size                               0                        0
 -------------------------------------------------------------------------------

 *** WARNING in dbcsr_mm.F:278 :: Using a non-square number of MPI ranks ***
 *** might lead to poor performance. Used ranks: 24 Suggested: 25 49     ***

 -------------------------------------------------------------------------------
 -                                                                             -
 -                      DBCSR MESSAGE PASSING PERFORMANCE                      -
 -                                                                             -
 -------------------------------------------------------------------------------

 ROUTINE             CALLS      AVE VOLUME [Bytes]
 MP_Group               44
 MP_Bcast               67                     12.
 MP_Allreduce         5268                      9.
 MP_Alltoall          2893                 236977.
 MP_Wait             49640
 MP_ISend            36658                 104328.
 MP_IRecv            36688                  22811.
 MP_Memory           70408
 -------------------------------------------------------------------------------


 MEMORY| Estimated peak process memory [MiB]                                1142

 -------------------------------------------------------------------------------
 ----                             MULTIGRID INFO                            ----
 -------------------------------------------------------------------------------
 count for grid        1:        1111106          cutoff [a.u.]          200.00
 count for grid        2:         101854          cutoff [a.u.]           66.67
 count for grid        3:          48404          cutoff [a.u.]           22.22
 count for grid        4:          18250          cutoff [a.u.]            7.41
 total gridlevel count  :        1279614

 -------------------------------------------------------------------------------
 -                                                                             -
 -                         MESSAGE PASSING PERFORMANCE                         -
 -                                                                             -
 -------------------------------------------------------------------------------

 ROUTINE             CALLS      AVE VOLUME [Bytes]
 MP_Group                5
 MP_Bcast              450                2655711.
 MP_Allreduce          585                 366817.
 MP_Sync                81
 MP_Alltoall           303                9375726.
 MP_ISendRecv         1104                  73831.
 MP_Wait              3496
 MP_comm_split          19
 MP_ISend             4782                 309360.
 MP_IRecv             4266                 826912.
 MP_Recv                 5                   6336.
 -------------------------------------------------------------------------------


 -------------------------------------------------------------------------------
 -                                                                             -
 -                           R E F E R E N C E S                               -
 -                                                                             -
 -------------------------------------------------------------------------------
 
 CP2K version 7.0 (Development Version), the CP2K developers group (2018).
 CP2K is freely available from https://www.cp2k.org/ .

 Schuett, Ole; Messmer, Peter; Hutter, Juerg; VandeVondele, Joost. 
 Electronic Structure Calculations on Graphics Processing Units, John Wiley & Sons, Ltd, 173-190 (2016). 
 GPU-Accelerated Sparse Matrix-Matrix Multiplication for Linear Scaling Density Functional Theory.
 https://dx.doi.org/10.1002/9781118670712.ch8


 Del Ben, M; Schuett, O; Wentz, T; Messmer, P; Hutter, J;
 VandeVondele, J. 
 COMPUTER PHYSICS COMMUNICATIONS, 187, 120-129 (2015). 
 Enabling simulation at the fifth rung of DFT: Large scale RPA
 calculations with excellent time to solution.
 https://dx.doi.org/10.1016/j.cpc.2014.10.021


 Borstnik, U; VandeVondele, J; Weber, V; Hutter, J. 
 PARALLEL COMPUTING, 40 (5-6), 47-58 (2014). 
 Sparse matrix multiplication: The distributed block-compressed sparse
 row library.
 https://dx.doi.org/10.1016/j.parco.2014.03.012


 Hutter, J; Iannuzzi, M; Schiffmann, F; VandeVondele, J. 
 WILEY INTERDISCIPLINARY REVIEWS-COMPUTATIONAL MOLECULAR SCIENCE, 4 (1), 15-25 (2014). 
 CP2K: atomistic simulations of condensed matter systems.
 https://dx.doi.org/10.1002/wcms.1159


 Del Ben, M; Hutter, J; VandeVondele, J. 
 JOURNAL OF CHEMICAL THEORY AND COMPUTATION, 9 (6), 2654-2671 (2013). 
 Electron Correlation in the Condensed Phase from a Resolution of
 Identity Approach Based on the Gaussian and Plane Waves Scheme.
 https://dx.doi.org/10.1021/ct4002202


 Del Ben, M; Hutter, J; VandeVondele, J. 
 JOURNAL OF CHEMICAL THEORY AND COMPUTATION, 8 (11), 4177-4188 (2012). 
 Second-Order Moller-Plesset Perturbation Theory in the Condensed Phase:
 An Efficient and Massively Parallel Gaussian and Plane Waves Approach.
 https://dx.doi.org/10.1021/ct300531w


 Guidon, M; Hutter, J; VandeVondele, J. 
 JOURNAL OF CHEMICAL THEORY AND COMPUTATION, 5 (11), 3010-3021 (2009). 
 Robust Periodic Hartree-Fock Exchange for Large-Scale Simulations Using
 Gaussian Basis Sets.
 https://dx.doi.org/10.1021/ct900494g


 Guidon, M; Schiffmann, F; Hutter, J; VandeVondele, J. 
 JOURNAL OF CHEMICAL PHYSICS, 128 (21), 214104 (2008). 
 Ab initio molecular dynamics using hybrid density functionals.
 https://dx.doi.org/10.1063/1.2931945


 Frigo, M; Johnson, SG. 
 PROCEEDINGS OF THE IEEE, 93 (2), 216-231 (2005). 
 The design and implementation of FFTW3.
 https://dx.doi.org/10.1109/JPROC.2004.840301


 Lippert, G; Hutter, J; Parrinello, M. 
 THEORETICAL CHEMISTRY ACCOUNTS, 103 (2), 124-140 (1999). 
 The Gaussian and augmented-plane-wave density functional method for ab
 initio molecular dynamics simulations.
 https://dx.doi.org/10.1007/s002140050523


 Krack, M; Parrinello, M. 
 PHYSICAL CHEMISTRY CHEMICAL PHYSICS, 2 (10), 2105-2112 (2000). 
 All-electron ab-initio molecular dynamics.
 https://dx.doi.org/10.1039/b001167n


 Martyna, GJ; Tuckerman, ME. 
 JOURNAL OF CHEMICAL PHYSICS, 110 (6), 2810-2821 (1999). 
 A reciprocal space based method for treating long range interactions in
 ab initio and force-field-based calculations in clusters.
 https://dx.doi.org/10.1063/1.477923


 Perdew, JP; Burke, K; Ernzerhof, M. 
 PHYSICAL REVIEW LETTERS, 77 (18), 3865-3868 (1996). 
 Generalized gradient approximation made simple.
 https://dx.doi.org/10.1103/PhysRevLett.77.3865


 -------------------------------------------------------------------------------
 -                                                                             -
 -                                T I M I N G                                  -
 -                                                                             -
 -------------------------------------------------------------------------------
 SUBROUTINE                       CALLS  ASD         SELF TIME        TOTAL TIME
                                MAXIMUM       AVERAGE  MAXIMUM  AVERAGE  MAXIMUM
 CP2K                                 1  1.0    0.056    0.101 1902.172 1902.173
 qs_energies                          1  2.0    0.000    0.002 1899.419 1899.432
 mp2_main                             1  3.0    0.000    0.001 1853.901 1853.915
 mp2_gpw_main                         1  4.0    0.001    0.001 1743.241 1743.254
 mp2_ri_gpw_compute_in                1  5.0    0.000    0.000 1252.408 1576.943
 compute_3c_overlap_int               1  6.0  350.146  445.440 1236.632 1561.154
 mp_comm_split_direct                 8  6.6  327.547 1260.836  327.547 1260.836
 create_dbcsr_matrices_im_time        1  5.0    0.001    0.002  324.544 1259.688
 compute_3c_overlap_int_put_dbc  163392  7.0  882.639 1122.105  882.639 1122.105
 rpa_ri_compute_en                    1  5.0    0.000    0.000  166.284  166.295
 rpa_num_int                          1  6.0    0.001    0.003  166.277  166.291
 dbcsr_multiply_generic             911  9.9    0.082    0.109  106.274  127.844
 multiply_cannon                    911 10.9    0.216    0.279   96.573  120.600
 compute_vec_Sigma_x_minus_vxc_       1  4.0    0.000    0.000  110.637  110.637
 integrate_four_center                1  5.0    0.004    0.006  108.700  108.701
 compute_mat_P_omega                  1  7.0    0.001    0.001   94.617   94.629
 multiply_cannon_multrec          10459 11.9   65.397   93.332   68.519   93.627
 compute_mat_P_omega_calc_P          14  8.0    0.001    0.001   80.669   81.621
 mp_sync                             81  8.7   45.139   80.968   45.139   80.968
 calc_screening_functions             1  6.0   33.596   34.616   50.300   51.408
 GW_postprocessing                    1  7.0    0.000    0.000   46.872   46.872
 compute_self_energy_im_time_gw       1  8.0    0.004    0.005   46.870   46.872
 scf_env_do_scf                       1  3.0    0.000    0.000   44.519   44.519
 scf_env_do_scf_inner_loop           10  4.0    0.001    0.001   44.519   44.519
 qs_ks_build_kohn_sham_matrix        11  6.8    0.003    0.004   41.027   41.060
 qs_ks_update_qs_env                 10  5.0    0.000    0.000   39.101   39.131
 rebuild_ks_matrix                   10  6.0    0.000    0.000   39.099   39.129
 -------------------------------------------------------------------------------

 The number of warnings for this run is : 2
 
 -------------------------------------------------------------------------------
  **** **** ******  **  PROGRAM ENDED AT                 2019-05-31 01:39:09.097
 ***** ** ***  *** **   PROGRAM RAN ON                                    tcopt4
 **    ****   ******    PROGRAM RAN BY                                   wilhelm
 ***** **    ** ** **   PROGRAM PROCESS ID                                 21161
  **** **  *******  **  PROGRAM STOPPED IN /data/wilhelm/2_job_test/11_GW100/3_c
                                           alcs/100_CuCN
