 DBCSR| CPU Multiplication driver                                           BLAS
 DBCSR| Multrec recursion limit                                              512
 DBCSR| Multiplication stack size                                           1000
 DBCSR| Maximum elements for images                                    UNLIMITED
 DBCSR| Multiplicative factor virtual images                                   1
 DBCSR| Use multiplication densification                                       T
 DBCSR| Multiplication size stacks                                             3
 DBCSR| Number of 3D layers                                               SINGLE
 DBCSR| Use MPI memory allocation                                              T
 DBCSR| Use RMA algorithm                                                      F
 DBCSR| Use Communication thread                                               T
 DBCSR| Communication thread load                                             87


  **** **** ******  **  PROGRAM STARTED AT               2019-05-31 02:17:31.155
 ***** ** ***  *** **   PROGRAM STARTED ON                                tcopt4
 **    ****   ******    PROGRAM STARTED BY                               wilhelm
 ***** **    ** ** **   PROGRAM PROCESS ID                                 22149
  **** **  *******  **  PROGRAM STARTED IN /data/wilhelm/2_job_test/11_GW100/3_c
                                           alcs/17_Cl2

 CP2K| version string:                    CP2K version 7.0 (Development Version)
 CP2K| source code revision number:                                  git:026fb12
 CP2K| cp2kflags: libint fftw3 libxc pexsi elpa=201705 parallel mpi3 scalapack q
 CP2K|            uip libderiv_max_am1=5 libint_max_am=6
 CP2K| is freely available from                            https://www.cp2k.org/
 CP2K| Program compiled at                         Sat May 11 13:15:02 CEST 2019
 CP2K| Program compiled on                                                tcopt4
 CP2K| Program compiled for                            local_valgrind_March_2019
 CP2K| Data directory path              /data/wilhelm/1_git_repository/cp2k/data
 CP2K| Input file name                                                    GW.inp

 GLOBAL| Force Environment number                                              1
 GLOBAL| Basis set file name                              BASIS_def2_QZVP_RI_ALL
 GLOBAL| Potential file name                                           POTENTIAL
 GLOBAL| MM Potential file name                                     MM_POTENTIAL
 GLOBAL| Coordinate file name                                         17_Cl2.xyz
 GLOBAL| Method name                                                        CP2K
 GLOBAL| Project name                                                   ALL_ELEC
 GLOBAL| Preferred FFT library                                             FFTW3
 GLOBAL| Preferred diagonalization lib.                                       SL
 GLOBAL| Run type                                                         ENERGY
 GLOBAL| All-to-all communication in single precision                          F
 GLOBAL| FFTs using library dependent lengths                                  F
 GLOBAL| Global print level                                               MEDIUM
 GLOBAL| MPI I/O enabled                                                       T
 GLOBAL| Total number of message passing processes                            24
 GLOBAL| Number of threads for this process                                    1
 GLOBAL| This output is from process                                           0
 GLOBAL| CPU model name :  Intel(R) Xeon(R) CPU E5-2697 v3 @ 2.60GHz

 MEMORY| system memory details [Kb]
 MEMORY|                        rank 0           min           max       average
 MEMORY| MemTotal            396954008     396954008     396954008     396954008
 MEMORY| MemFree             220115116     220115116     220115116     220115116
 MEMORY| Buffers                236044        236044        236044        236044
 MEMORY| Cached               14356644      14356644      14356644      14356644
 MEMORY| Slab                   543872        543872        543872        543872
 MEMORY| SReclaimable           406316        406316        406316        406316
 MEMORY| MemLikelyFree       235114120     235114120     235114120     235114120


 *** Fundamental physical constants (SI units) ***

 *** Literature: B. J. Mohr and B. N. Taylor,
 ***             CODATA recommended values of the fundamental physical
 ***             constants: 2006, Web Version 5.1
 ***             http://physics.nist.gov/constants

 Speed of light in vacuum [m/s]                             2.99792458000000E+08
 Magnetic constant or permeability of vacuum [N/A**2]       1.25663706143592E-06
 Electric constant or permittivity of vacuum [F/m]          8.85418781762039E-12
 Planck constant (h) [J*s]                                  6.62606896000000E-34
 Planck constant (h-bar) [J*s]                              1.05457162825177E-34
 Elementary charge [C]                                      1.60217648700000E-19
 Electron mass [kg]                                         9.10938215000000E-31
 Electron g factor [ ]                                     -2.00231930436220E+00
 Proton mass [kg]                                           1.67262163700000E-27
 Fine-structure constant                                    7.29735253760000E-03
 Rydberg constant [1/m]                                     1.09737315685270E+07
 Avogadro constant [1/mol]                                  6.02214179000000E+23
 Boltzmann constant [J/K]                                   1.38065040000000E-23
 Atomic mass unit [kg]                                      1.66053878200000E-27
 Bohr radius [m]                                            5.29177208590000E-11

 *** Conversion factors ***

 [u] -> [a.u.]                                              1.82288848426455E+03
 [Angstrom] -> [Bohr] = [a.u.]                              1.88972613288564E+00
 [a.u.] = [Bohr] -> [Angstrom]                              5.29177208590000E-01
 [a.u.] -> [s]                                              2.41888432650478E-17
 [a.u.] -> [fs]                                             2.41888432650478E-02
 [a.u.] -> [J]                                              4.35974393937059E-18
 [a.u.] -> [N]                                              8.23872205491840E-08
 [a.u.] -> [K]                                              3.15774647902944E+05
 [a.u.] -> [kJ/mol]                                         2.62549961709828E+03
 [a.u.] -> [kcal/mol]                                       6.27509468713739E+02
 [a.u.] -> [Pa]                                             2.94210107994716E+13
 [a.u.] -> [bar]                                            2.94210107994716E+08
 [a.u.] -> [atm]                                            2.90362800883016E+08
 [a.u.] -> [eV]                                             2.72113838565563E+01
 [a.u.] -> [Hz]                                             6.57968392072181E+15
 [a.u.] -> [1/cm] (wave numbers)                            2.19474631370540E+05
 [a.u./Bohr**2] -> [1/cm]                                   5.14048714338585E+03
 

 CELL_TOP| Volume [angstrom^3]:                                         4096.000
 CELL_TOP| Vector a [angstrom    16.000     0.000     0.000    |a| =      16.000
 CELL_TOP| Vector b [angstrom     0.000    16.000     0.000    |b| =      16.000
 CELL_TOP| Vector c [angstrom     0.000     0.000    16.000    |c| =      16.000
 CELL_TOP| Angle (b,c), alpha [degree]:                                   90.000
 CELL_TOP| Angle (a,c), beta  [degree]:                                   90.000
 CELL_TOP| Angle (a,b), gamma [degree]:                                   90.000
 CELL_TOP| Numerically orthorhombic:                                         YES

 GENERATE|  Preliminary Number of Bonds generated:                             0
 GENERATE|  Achieved consistency in connectivity generation.

 CELL| Volume [angstrom^3]:                                             4096.000
 CELL| Vector a [angstrom]:      16.000     0.000     0.000    |a| =      16.000
 CELL| Vector b [angstrom]:       0.000    16.000     0.000    |b| =      16.000
 CELL| Vector c [angstrom]:       0.000     0.000    16.000    |c| =      16.000
 CELL| Angle (b,c), alpha [degree]:                                       90.000
 CELL| Angle (a,c), beta  [degree]:                                       90.000
 CELL| Angle (a,b), gamma [degree]:                                       90.000
 CELL| Numerically orthorhombic:                                             YES

 CELL_REF| Volume [angstrom^3]:                                         4096.000
 CELL_REF| Vector a [angstrom    16.000     0.000     0.000    |a| =      16.000
 CELL_REF| Vector b [angstrom     0.000    16.000     0.000    |b| =      16.000
 CELL_REF| Vector c [angstrom     0.000     0.000    16.000    |c| =      16.000
 CELL_REF| Angle (b,c), alpha [degree]:                                   90.000
 CELL_REF| Angle (a,c), beta  [degree]:                                   90.000
 CELL_REF| Angle (a,b), gamma [degree]:                                   90.000
 CELL_REF| Numerically orthorhombic:                                         YES

 *******************************************************************************
 *******************************************************************************
 **                                                                           **
 **     #####                         ##              ##                      **
 **    ##   ##            ##          ##              ##                      **
 **   ##     ##                       ##            ######                    **
 **   ##     ##  ##   ##  ##   #####  ##  ##   ####   ##    #####    #####    **
 **   ##     ##  ##   ##  ##  ##      ## ##   ##      ##   ##   ##  ##   ##   **
 **   ##  ## ##  ##   ##  ##  ##      ####     ###    ##   ######   ######    **
 **    ##  ###   ##   ##  ##  ##      ## ##      ##   ##   ##       ##        **
 **     #######   #####   ##   #####  ##  ##  ####    ##    #####   ##        **
 **           ##                                                    ##        **
 **                                                                           **
 **                                                ... make the atoms dance   **
 **                                                                           **
 **            Copyright (C) by CP2K developers group (2000 - 2019)           **
 **                                                                           **
 *******************************************************************************

 DFT| Spin restricted Kohn-Sham (RKS) calculation                            RKS
 DFT| Multiplicity                                                             1
 DFT| Number of spin states                                                    1
 DFT| Charge                                                                   0
 DFT| Self-interaction correction (SIC)                                       NO
 DFT| Cutoffs: density                                              1.000000E-10
 DFT|          gradient                                             1.000000E-10
 DFT|          tau                                                  1.000000E-10
 DFT|          cutoff_smoothing_range                               0.000000E+00
 DFT| XC density smoothing                                                  NONE
 DFT| XC derivatives                                                          PW
 FUNCTIONAL| ROUTINE=NEW
 FUNCTIONAL| PBE:
 FUNCTIONAL| J.P.Perdew, K.Burke, M.Ernzerhof, Phys. Rev. Letter, vol. 77, n 18,
 FUNCTIONAL|  pp. 3865-3868, (1996){spin unpolarized}                           

 QS| Method:                                                                GAPW
 QS| Density plane wave grid type                        NON-SPHERICAL FULLSPACE
 QS| Number of grid levels:                                                    4
 QS| Density cutoff [a.u.]:                                                200.0
 QS| Multi grid cutoff [a.u.]: 1) grid level                               200.0
 QS|                           2) grid level                                66.7
 QS|                           3) grid level                                22.2
 QS|                           4) grid level                                 7.4
 QS| Grid level progression factor:                                          3.0
 QS| Relative density cutoff [a.u.]:                                        25.0
 QS| Consistent realspace mapping and integration 
 QS| Interaction thresholds: eps_pgf_orb:                                1.0E-05
 QS|                         eps_filter_matrix:                          0.0E+00
 QS|                         eps_core_charge:                            1.0E-12
 QS|                         eps_rho_gspace:                             1.0E-10
 QS|                         eps_rho_rspace:                             1.0E-10
 QS|                         eps_gvg_rspace:                             1.0E-05
 QS|                         eps_ppl:                                    1.0E-02
 QS|                         eps_ppnl:                                   1.0E-07
 QS| GAPW|                   eps_fit:                                    1.0E-04
 QS| GAPW|                   eps_iso:                                    1.0E-12
 QS| GAPW|                   eps_svd:                                    1.0E-08
 QS| GAPW|                   eps_cpc:                                    1.0E-10
 QS| GAPW|   atom-r-grid: quadrature:                 GC_LOG                        
 QS| GAPW|      atom-s-grid:  max l :                                          8
 QS| GAPW|      max_l_rho0 :                                                   2


 ATOMIC KIND INFORMATION

  1. Atomic kind: Cl                                    Number of atoms:       2

     Orbital Basis Set                                                 def2-QZVP

       Number of orbital shell sets:                                          22
       Number of orbital shells:                                              22
       Number of primitive Cartesian functions:                               41
       Number of Cartesian basis functions:                                   86
       Number of spherical basis functions:                                   70
       Norm type:                                                              2

       Normalised Cartesian orbitals:

                        Set   Shell   Orbital            Exponent    Coefficient

                          1       1    1s          1467459.009500       0.425773
                                                    219756.164330       0.796829
                                                     50010.770301       1.380227
                                                     14164.823918       2.257494
                                                      4620.746552       3.521527
                                                      1667.899163       5.224536
                                                       650.291993       7.246291
                                                       269.380374       8.968589
                                                       117.067521       9.076269
                                                        52.811767       6.264795

                          2       1    1s              461.427700       1.611036
                                                       142.126654       6.095348
                                                        54.437839      11.498871

                          3       1    1s               24.160770       7.766819

                          4       1    1s                9.708354       3.919849

                          5       1    1s                4.564070       2.225483

                          6       1    1s                2.119474       1.251933

                          7       1    1s                0.757224       0.578533

                          8       1    1s                0.337472       0.315565

                          9       1    1s                0.138608       0.161901

                         10       1    1px            2501.945789       6.358182
                                                       592.880593       9.140815
                                                       192.180892      12.125297
                                                        72.875710      14.188254
                                                        30.436358      13.984205
                                                        13.490179      10.535628
                                                         6.147807       5.502251
                                                         2.845094       1.581259
                         10       1    1py            2501.945789       6.358182
                                                       592.880593       9.140815
                                                       192.180892      12.125297
                                                        72.875710      14.188254
                                                        30.436358      13.984205
                                                        13.490179      10.535628
                                                         6.147807       5.502251
                                                         2.845094       1.581259
                         10       1    1pz            2501.945789       6.358182
                                                       592.880593       9.140815
                                                       192.180892      12.125297
                                                        72.875710      14.188254
                                                        30.436358      13.984205
                                                        13.490179      10.535628
                                                         6.147807       5.502251
                                                         2.845094       1.581259

                         11       1    1px             105.393979     -25.961556
                                                         6.736974      15.579070
                         11       1    1py             105.393979     -25.961556
                                                         6.736974      15.579070
                         11       1    1pz             105.393979     -25.961556
                                                         6.736974      15.579070

                         12       1    1px               1.242110       1.869132
                         12       1    1py               1.242110       1.869132
                         12       1    1pz               1.242110       1.869132

                         13       1    1px               0.556697       0.685431
                         13       1    1py               0.556697       0.685431
                         13       1    1pz               0.556697       0.685431

                         14       1    1px               0.233878       0.231834
                         14       1    1py               0.233878       0.231834
                         14       1    1pz               0.233878       0.231834

                         15       1    1px               0.093164       0.073367
                         15       1    1py               0.093164       0.073367
                         15       1    1pz               0.093164       0.073367

                         16       1    1dx2              5.191000      29.383177
                         16       1    1dxy              5.191000      50.893156
                         16       1    1dxz              5.191000      50.893156
                         16       1    1dy2              5.191000      29.383177
                         16       1    1dyz              5.191000      50.893156
                         16       1    1dz2              5.191000      29.383177

                         17       1    1dx2              1.276000       2.521437
                         17       1    1dxy              1.276000       4.367257
                         17       1    1dxz              1.276000       4.367257
                         17       1    1dy2              1.276000       2.521437
                         17       1    1dyz              1.276000       4.367257
                         17       1    1dz2              1.276000       2.521437

                         18       1    1dx2              0.583000       0.640220
                         18       1    1dxy              0.583000       1.108894
                         18       1    1dxz              0.583000       1.108894
                         18       1    1dy2              0.583000       0.640220
                         18       1    1dyz              0.583000       1.108894
                         18       1    1dz2              0.583000       0.640220

                         19       1    1dx2              0.243000       0.138427
                         19       1    1dxy              0.243000       0.239762
                         19       1    1dxz              0.243000       0.239762
                         19       1    1dy2              0.243000       0.138427
                         19       1    1dyz              0.243000       0.239762
                         19       1    1dz2              0.243000       0.138427

                         20       1    1fx3              0.423000       0.212432
                         20       1    1fx2y             0.423000       0.475013
                         20       1    1fx2z             0.423000       0.475013
                         20       1    1fxy2             0.423000       0.475013
                         20       1    1fxyz             0.423000       0.822746
                         20       1    1fxz2             0.423000       0.475013
                         20       1    1fy3              0.423000       0.212432
                         20       1    1fy2z             0.423000       0.475013
                         20       1    1fyz2             0.423000       0.475013
                         20       1    1fz3              0.423000       0.212432

                         21       1    1fx3              1.089000       1.783476
                         21       1    1fx2y             1.089000       3.987973
                         21       1    1fx2z             1.089000       3.987973
                         21       1    1fxy2             1.089000       3.987973
                         21       1    1fxyz             1.089000       6.907371
                         21       1    1fxz2             1.089000       3.987973
                         21       1    1fy3              1.089000       1.783476
                         21       1    1fy2z             1.089000       3.987973
                         21       1    1fyz2             1.089000       3.987973
                         21       1    1fz3              1.089000       1.783476

                         22       1    1gx4              0.827000       0.660048
                         22       1    1gx3y             0.827000       1.746323
                         22       1    1gx3z             0.827000       1.746323
                         22       1    1gx2y2            0.827000       2.254493
                         22       1    1gx2yz            0.827000       3.904897
                         22       1    1gx2z2            0.827000       2.254493
                         22       1    1gxy3             0.827000       1.746323
                         22       1    1gxy2z            0.827000       3.904897
                         22       1    1gxyz2            0.827000       3.904897
                         22       1    1gxz3             0.827000       1.746323
                         22       1    1gy4              0.827000       0.660048
                         22       1    1gy3z             0.827000       1.746323
                         22       1    1gy2z2            0.827000       2.254493
                         22       1    1gyz3             0.827000       1.746323
                         22       1    1gz4              0.827000       0.660048

     RI Auxiliary Basis Set                                                RI-5Z

       Number of orbital shell sets:                                          48
       Number of orbital shells:                                              48
       Number of primitive Cartesian functions:                               48
       Number of Cartesian basis functions:                                  335
       Number of spherical basis functions:                                  230
       Norm type:                                                              2

       Normalised Cartesian orbitals:

                        Set   Shell   Orbital            Exponent    Coefficient

                          1       1    1s             1275.190000     152.086710

                          2       1    1s              308.271000      52.433590

                          3       1    1s              107.711000      23.828963

                          4       1    1s               34.462700      10.137295

                          5       1    1s               14.452900       5.282948

                          6       1    1s                7.544300       3.244325

                          7       1    1s                3.685440       1.895733

                          8       1    1s                1.789660       1.102778

                          9       1    1s                1.072910       0.751333

                         10       1    1s                0.736635       0.566695

                         11       1    1s                0.332604       0.312145

                         12       1    1s                0.183773       0.200042

                         13       1    1px             405.243000    2591.698576
                         13       1    1py             405.243000    2591.698576
                         13       1    1pz             405.243000    2591.698576

                         14       1    1px             117.714000     552.681891
                         14       1    1py             117.714000     552.681891
                         14       1    1pz             117.714000     552.681891

                         15       1    1px              37.138800     130.684753
                         15       1    1py              37.138800     130.684753
                         15       1    1pz              37.138800     130.684753

                         16       1    1px              19.320600      57.738547
                         16       1    1py              19.320600      57.738547
                         16       1    1pz              19.320600      57.738547

                         17       1    1px               8.503760      20.699213
                         17       1    1py               8.503760      20.699213
                         17       1    1pz               8.503760      20.699213

                         18       1    1px               4.262460       8.730025
                         18       1    1py               4.262460       8.730025
                         18       1    1pz               4.262460       8.730025

                         19       1    1px               1.929040       3.240534
                         19       1    1py               1.929040       3.240534
                         19       1    1pz               1.929040       3.240534

                         20       1    1px               1.246920       1.878185
                         20       1    1py               1.246920       1.878185
                         20       1    1pz               1.246920       1.878185

                         21       1    1px               0.739900       0.978152
                         21       1    1py               0.739900       0.978152
                         21       1    1pz               0.739900       0.978152

                         22       1    1px               0.495422       0.592460
                         22       1    1py               0.495422       0.592460
                         22       1    1pz               0.495422       0.592460

                         23       1    1px               0.264132       0.269908
                         23       1    1py               0.264132       0.269908
                         23       1    1pz               0.264132       0.269908

                         24       1    1dx2            118.091000    6962.879136
                         24       1    1dxy            118.091000   12060.060431
                         24       1    1dxz            118.091000   12060.060431
                         24       1    1dy2            118.091000    6962.879136
                         24       1    1dyz            118.091000   12060.060431
                         24       1    1dz2            118.091000    6962.879136

                         25       1    1dx2             39.157400    1008.866472
                         25       1    1dxy             39.157400    1747.407988
                         25       1    1dxz             39.157400    1747.407988
                         25       1    1dy2             39.157400    1008.866472
                         25       1    1dyz             39.157400    1747.407988
                         25       1    1dz2             39.157400    1008.866472

                         26       1    1dx2             13.190700     150.272040
                         26       1    1dxy             13.190700     260.278808
                         26       1    1dxz             13.190700     260.278808
                         26       1    1dy2             13.190700     150.272040
                         26       1    1dyz             13.190700     260.278808
                         26       1    1dz2             13.190700     150.272040

                         27       1    1dx2              6.218710      40.307419
                         27       1    1dxy              6.218710      69.814498
                         27       1    1dxz              6.218710      69.814498
                         27       1    1dy2              6.218710      40.307419
                         27       1    1dyz              6.218710      69.814498
                         27       1    1dz2              6.218710      40.307419

                         28       1    1dx2              2.507050       8.221380
                         28       1    1dxy              2.507050      14.239847
                         28       1    1dxz              2.507050      14.239847
                         28       1    1dy2              2.507050       8.221380
                         28       1    1dyz              2.507050      14.239847
                         28       1    1dz2              2.507050       8.221380

                         29       1    1dx2              1.522240       3.433641
                         29       1    1dxy              1.522240       5.947241
                         29       1    1dxz              1.522240       5.947241
                         29       1    1dy2              1.522240       3.433641
                         29       1    1dyz              1.522240       5.947241
                         29       1    1dz2              1.522240       3.433641

                         30       1    1dx2              0.872617       1.296734
                         30       1    1dxy              0.872617       2.246009
                         30       1    1dxz              0.872617       2.246009
                         30       1    1dy2              0.872617       1.296734
                         30       1    1dyz              0.872617       2.246009
                         30       1    1dz2              0.872617       1.296734

                         31       1    1dx2              0.431274       0.377770
                         31       1    1dxy              0.431274       0.654317
                         31       1    1dxz              0.431274       0.654317
                         31       1    1dy2              0.431274       0.377770
                         31       1    1dyz              0.431274       0.654317
                         31       1    1dz2              0.431274       0.377770

                         32       1    1dx2              0.231014       0.126700
                         32       1    1dxy              0.231014       0.219451
                         32       1    1dxz              0.231014       0.219451
                         32       1    1dy2              0.231014       0.126700
                         32       1    1dyz              0.231014       0.219451
                         32       1    1dz2              0.231014       0.126700

                         33       1    1fx3             21.558400    1474.319577
                         33       1    1fx2y            21.558400    3296.678795
                         33       1    1fx2z            21.558400    3296.678795
                         33       1    1fxy2            21.558400    3296.678795
                         33       1    1fxyz            21.558400    5710.015169
                         33       1    1fxz2            21.558400    3296.678795
                         33       1    1fy3             21.558400    1474.319577
                         33       1    1fy2z            21.558400    3296.678795
                         33       1    1fyz2            21.558400    3296.678795
                         33       1    1fz3             21.558400    1474.319577

                         34       1    1fx3             10.107900     268.189368
                         34       1    1fx2y            10.107900     599.689658
                         34       1    1fx2z            10.107900     599.689658
                         34       1    1fxy2            10.107900     599.689658
                         34       1    1fxyz            10.107900    1038.692957
                         34       1    1fxz2            10.107900     599.689658
                         34       1    1fy3             10.107900     268.189368
                         34       1    1fy2z            10.107900     599.689658
                         34       1    1fyz2            10.107900     599.689658
                         34       1    1fz3             10.107900     268.189368

                         35       1    1fx3              4.921690      53.114308
                         35       1    1fx2y             4.921690     118.767202
                         35       1    1fx2z             4.921690     118.767202
                         35       1    1fxy2             4.921690     118.767202
                         35       1    1fxyz             4.921690     205.710829
                         35       1    1fxz2             4.921690     118.767202
                         35       1    1fy3              4.921690      53.114308
                         35       1    1fy2z             4.921690     118.767202
                         35       1    1fyz2             4.921690     118.767202
                         35       1    1fz3              4.921690      53.114308

                         36       1    1fx3              2.194960       8.633051
                         36       1    1fx2y             2.194960      19.304090
                         36       1    1fx2z             2.194960      19.304090
                         36       1    1fxy2             2.194960      19.304090
                         36       1    1fxyz             2.194960      33.435664
                         36       1    1fxz2             2.194960      19.304090
                         36       1    1fy3              2.194960       8.633051
                         36       1    1fy2z             2.194960      19.304090
                         36       1    1fyz2             2.194960      19.304090
                         36       1    1fz3              2.194960       8.633051

                         37       1    1fx3              1.541620       3.898553
                         37       1    1fx2y             1.541620       8.717430
                         37       1    1fx2z             1.541620       8.717430
                         37       1    1fxy2             1.541620       8.717430
                         37       1    1fxyz             1.541620      15.099031
                         37       1    1fxz2             1.541620       8.717430
                         37       1    1fy3              1.541620       3.898553
                         37       1    1fy2z             1.541620       8.717430
                         37       1    1fyz2             1.541620       8.717430
                         37       1    1fz3              1.541620       3.898553

                         38       1    1fx3              0.806943       0.908554
                         38       1    1fx2y             0.806943       2.031589
                         38       1    1fx2z             0.806943       2.031589
                         38       1    1fxy2             0.806943       2.031589
                         38       1    1fxyz             0.806943       3.518816
                         38       1    1fxz2             0.806943       2.031589
                         38       1    1fy3              0.806943       0.908554
                         38       1    1fy2z             0.806943       2.031589
                         38       1    1fyz2             0.806943       2.031589
                         38       1    1fz3              0.806943       0.908554

                         39       1    1fx3              0.436387       0.227859
                         39       1    1fx2y             0.436387       0.509508
                         39       1    1fx2z             0.436387       0.509508
                         39       1    1fxy2             0.436387       0.509508
                         39       1    1fxyz             0.436387       0.882494
                         39       1    1fxz2             0.436387       0.509508
                         39       1    1fy3              0.436387       0.227859
                         39       1    1fy2z             0.436387       0.509508
                         39       1    1fyz2             0.436387       0.509508
                         39       1    1fz3              0.436387       0.227859

                         40       1    1gx4              6.771040     214.159685
                         40       1    1gx3y             6.771040     566.613266
                         40       1    1gx3z             6.771040     566.613266
                         40       1    1gx2y2            6.771040     731.494582
                         40       1    1gx2yz            6.771040    1266.985781
                         40       1    1gx2z2            6.771040     731.494582
                         40       1    1gxy3             6.771040     566.613266
                         40       1    1gxy2z            6.771040    1266.985781
                         40       1    1gxyz2            6.771040    1266.985781
                         40       1    1gxz3             6.771040     566.613266
                         40       1    1gy4              6.771040     214.159685
                         40       1    1gy3z             6.771040     566.613266
                         40       1    1gy2z2            6.771040     731.494582
                         40       1    1gyz3             6.771040     566.613266
                         40       1    1gz4              6.771040     214.159685

                         41       1    1gx4              2.966800      22.142577
                         41       1    1gx3y             2.966800      58.583753
                         41       1    1gx3z             2.966800      58.583753
                         41       1    1gx2y2            2.966800      75.631300
                         41       1    1gx2yz            2.966800     130.997254
                         41       1    1gx2z2            2.966800      75.631300
                         41       1    1gxy3             2.966800      58.583753
                         41       1    1gxy2z            2.966800     130.997254
                         41       1    1gxyz2            2.966800     130.997254
                         41       1    1gxz3             2.966800      58.583753
                         41       1    1gy4              2.966800      22.142577
                         41       1    1gy3z             2.966800      58.583753
                         41       1    1gy2z2            2.966800      75.631300
                         41       1    1gyz3             2.966800      58.583753
                         41       1    1gz4              2.966800      22.142577

                         42       1    1gx4              1.635990       4.308561
                         42       1    1gx3y             1.635990      11.399380
                         42       1    1gx3z             1.635990      11.399380
                         42       1    1gx2y2            1.635990      14.716536
                         42       1    1gx2yz            1.635990      25.489788
                         42       1    1gx2z2            1.635990      14.716536
                         42       1    1gxy3             1.635990      11.399380
                         42       1    1gxy2z            1.635990      25.489788
                         42       1    1gxyz2            1.635990      25.489788
                         42       1    1gxz3             1.635990      11.399380
                         42       1    1gy4              1.635990       4.308561
                         42       1    1gy3z             1.635990      11.399380
                         42       1    1gy2z2            1.635990      14.716536
                         42       1    1gyz3             1.635990      11.399380
                         42       1    1gz4              1.635990       4.308561

                         43       1    1gx4              0.990518       1.084069
                         43       1    1gx3y             0.990518       2.868177
                         43       1    1gx3z             0.990518       2.868177
                         43       1    1gx2y2            0.990518       3.702801
                         43       1    1gx2yz            0.990518       6.413439
                         43       1    1gx2z2            0.990518       3.702801
                         43       1    1gxy3             0.990518       2.868177
                         43       1    1gxy2z            0.990518       6.413439
                         43       1    1gxyz2            0.990518       6.413439
                         43       1    1gxz3             0.990518       2.868177
                         43       1    1gy4              0.990518       1.084069
                         43       1    1gy3z             0.990518       2.868177
                         43       1    1gy2z2            0.990518       3.702801
                         43       1    1gyz3             0.990518       2.868177
                         43       1    1gz4              0.990518       1.084069

                         44       1    1gx4              0.498669       0.164218
                         44       1    1gx3y             0.498669       0.434479
                         44       1    1gx3z             0.498669       0.434479
                         44       1    1gx2y2            0.498669       0.560910
                         44       1    1gx2yz            0.498669       0.971524
                         44       1    1gx2z2            0.498669       0.560910
                         44       1    1gxy3             0.498669       0.434479
                         44       1    1gxy2z            0.498669       0.971524
                         44       1    1gxyz2            0.498669       0.971524
                         44       1    1gxz3             0.498669       0.434479
                         44       1    1gy4              0.498669       0.164218
                         44       1    1gy3z             0.498669       0.434479
                         44       1    1gy2z2            0.498669       0.560910
                         44       1    1gyz3             0.498669       0.434479
                         44       1    1gz4              0.498669       0.164218

                         45       1    1hx5              4.059470      70.448136
                         45       1    1hx4y             4.059470     211.344409
                         45       1    1hx4z             4.059470     211.344409
                         45       1    1hx3y2            4.059470     322.833918
                         45       1    1hx3yz            4.059470     559.164748
                         45       1    1hx3z2            4.059470     322.833918
                         45       1    1hx2y3            4.059470     322.833918
                         45       1    1hx2y2z           4.059470     721.878586
                         45       1    1hx2yz2           4.059470     721.878586
                         45       1    1hx2z3            4.059470     322.833918
                         45       1    1hxy4             4.059470     211.344409
                         45       1    1hxy3z            4.059470     559.164748
                         45       1    1hxy2z2           4.059470     721.878586
                         45       1    1hxyz3            4.059470     559.164748
                         45       1    1hxz4             4.059470     211.344409
                         45       1    1hy5              4.059470      70.448136
                         45       1    1hy4z             4.059470     211.344409
                         45       1    1hy3z2            4.059470     322.833918
                         45       1    1hy2z3            4.059470     322.833918
                         45       1    1hyz4             4.059470     211.344409
                         45       1    1hz5              4.059470      70.448136

                         46       1    1hx5              1.699700       4.159624
                         46       1    1hx4y             1.699700      12.478872
                         46       1    1hx4z             1.699700      12.478872
                         46       1    1hx3y2            1.699700      19.061791
                         46       1    1hx3yz            1.699700      33.015991
                         46       1    1hx3z2            1.699700      19.061791
                         46       1    1hx2y3            1.699700      19.061791
                         46       1    1hx2y2z           1.699700      42.623461
                         46       1    1hx2yz2           1.699700      42.623461
                         46       1    1hx2z3            1.699700      19.061791
                         46       1    1hxy4             1.699700      12.478872
                         46       1    1hxy3z            1.699700      33.015991
                         46       1    1hxy2z2           1.699700      42.623461
                         46       1    1hxyz3            1.699700      33.015991
                         46       1    1hxz4             1.699700      12.478872
                         46       1    1hy5              1.699700       4.159624
                         46       1    1hy4z             1.699700      12.478872
                         46       1    1hy3z2            1.699700      19.061791
                         46       1    1hy2z3            1.699700      19.061791
                         46       1    1hyz4             1.699700      12.478872
                         46       1    1hz5              1.699700       4.159624

                         47       1    1hx5              0.868258       0.468762
                         47       1    1hx4y             0.868258       1.406287
                         47       1    1hx4z             0.868258       1.406287
                         47       1    1hx3y2            0.868258       2.148139
                         47       1    1hx3yz            0.868258       3.720686
                         47       1    1hx3z2            0.868258       2.148139
                         47       1    1hx2y3            0.868258       2.148139
                         47       1    1hx2y2z           0.868258       4.803385
                         47       1    1hx2yz2           0.868258       4.803385
                         47       1    1hx2z3            0.868258       2.148139
                         47       1    1hxy4             0.868258       1.406287
                         47       1    1hxy3z            0.868258       3.720686
                         47       1    1hxy2z2           0.868258       4.803385
                         47       1    1hxyz3            0.868258       3.720686
                         47       1    1hxz4             0.868258       1.406287
                         47       1    1hy5              0.868258       0.468762
                         47       1    1hy4z             0.868258       1.406287
                         47       1    1hy3z2            0.868258       2.148139
                         47       1    1hy2z3            0.868258       2.148139
                         47       1    1hyz4             0.868258       1.406287
                         47       1    1hz5              0.868258       0.468762

                         48       1    1ix6              1.481330       1.952640
                         48       1    1ix5y             1.481330       6.476174
                         48       1    1ix5z             1.481330       6.476174
                         48       1    1ix4y2            1.481330      11.217062
                         48       1    1ix4yz            1.481330      19.428521
                         48       1    1ix4z2            1.481330      11.217062
                         48       1    1ix3y3            1.481330      13.272206
                         48       1    1ix3y2z           1.481330      29.677556
                         48       1    1ix3yz2           1.481330      29.677556
                         48       1    1ix3z3            1.481330      13.272206
                         48       1    1ix2y4            1.481330      11.217062
                         48       1    1ix2y3z           1.481330      29.677556
                         48       1    1ix2y2z2          1.481330      38.313560
                         48       1    1ix2yz3           1.481330      29.677556
                         48       1    1ix2z4            1.481330      11.217062
                         48       1    1ixy5             1.481330       6.476174
                         48       1    1ixy4z            1.481330      19.428521
                         48       1    1ixy3z2           1.481330      29.677556
                         48       1    1ixy2z3           1.481330      29.677556
                         48       1    1ixyz4            1.481330      19.428521
                         48       1    1ixz5             1.481330       6.476174
                         48       1    1iy6              1.481330       1.952640
                         48       1    1iy5z             1.481330       6.476174
                         48       1    1iy4z2            1.481330      11.217062
                         48       1    1iy3z3            1.481330      13.272206
                         48       1    1iy2z4            1.481330      11.217062
                         48       1    1iyz5             1.481330       6.476174
                         48       1    1iz6              1.481330       1.952640

     The atoms of this atomic kind are PAW atoms (GAPW):
       Hard Gaussian function radius:                                      1.512
       Rho0 radius:                                                        1.512
       Maximum GTO radius used for PAW projector construction:            24.566

     GAPW Soft Basis Set                                          def2-QZVP_soft

       Number of orbital shell sets:                                          22
       Number of orbital shells:                                              22
       Number of primitive Cartesian functions:                               15
       Number of Cartesian basis functions:                                   86
       Number of spherical basis functions:                                   70
       Norm type:                                                              2

       Normalised Cartesian orbitals:

                        Set   Shell   Orbital            Exponent    Coefficient

                          1       1    1s         

                          2       1    1s         

                          3       1    1s         

                          4       1    1s         

                          5       1    1s         

                          6       1    1s                2.119474       1.251933

                          7       1    1s                0.757224       0.578533

                          8       1    1s                0.337472       0.315565

                          9       1    1s                0.138608       0.161901

                         10       1    1px               2.845094       1.581259
                         10       1    1py               2.845094       1.581259
                         10       1    1pz               2.845094       1.581259

                         11       1    1px        
                         11       1    1py        
                         11       1    1pz        

                         12       1    1px               1.242110       1.869132
                         12       1    1py               1.242110       1.869132
                         12       1    1pz               1.242110       1.869132

                         13       1    1px               0.556697       0.685431
                         13       1    1py               0.556697       0.685431
                         13       1    1pz               0.556697       0.685431

                         14       1    1px               0.233878       0.231834
                         14       1    1py               0.233878       0.231834
                         14       1    1pz               0.233878       0.231834

                         15       1    1px               0.093164       0.073367
                         15       1    1py               0.093164       0.073367
                         15       1    1pz               0.093164       0.073367

                         16       1    1dx2       
                         16       1    1dxy       
                         16       1    1dxz       
                         16       1    1dy2       
                         16       1    1dyz       
                         16       1    1dz2       

                         17       1    1dx2              1.276000       2.521437
                         17       1    1dxy              1.276000       4.367257
                         17       1    1dxz              1.276000       4.367257
                         17       1    1dy2              1.276000       2.521437
                         17       1    1dyz              1.276000       4.367257
                         17       1    1dz2              1.276000       2.521437

                         18       1    1dx2              0.583000       0.640220
                         18       1    1dxy              0.583000       1.108894
                         18       1    1dxz              0.583000       1.108894
                         18       1    1dy2              0.583000       0.640220
                         18       1    1dyz              0.583000       1.108894
                         18       1    1dz2              0.583000       0.640220

                         19       1    1dx2              0.243000       0.138427
                         19       1    1dxy              0.243000       0.239762
                         19       1    1dxz              0.243000       0.239762
                         19       1    1dy2              0.243000       0.138427
                         19       1    1dyz              0.243000       0.239762
                         19       1    1dz2              0.243000       0.138427

                         20       1    1fx3              0.423000       0.212432
                         20       1    1fx2y             0.423000       0.475013
                         20       1    1fx2z             0.423000       0.475013
                         20       1    1fxy2             0.423000       0.475013
                         20       1    1fxyz             0.423000       0.822746
                         20       1    1fxz2             0.423000       0.475013
                         20       1    1fy3              0.423000       0.212432
                         20       1    1fy2z             0.423000       0.475013
                         20       1    1fyz2             0.423000       0.475013
                         20       1    1fz3              0.423000       0.212432

                         21       1    1fx3              1.089000       1.783476
                         21       1    1fx2y             1.089000       3.987973
                         21       1    1fx2z             1.089000       3.987973
                         21       1    1fxy2             1.089000       3.987973
                         21       1    1fxyz             1.089000       6.907371
                         21       1    1fxz2             1.089000       3.987973
                         21       1    1fy3              1.089000       1.783476
                         21       1    1fy2z             1.089000       3.987973
                         21       1    1fyz2             1.089000       3.987973
                         21       1    1fz3              1.089000       1.783476

                         22       1    1gx4              0.827000       0.660048
                         22       1    1gx3y             0.827000       1.746323
                         22       1    1gx3z             0.827000       1.746323
                         22       1    1gx2y2            0.827000       2.254493
                         22       1    1gx2yz            0.827000       3.904897
                         22       1    1gx2z2            0.827000       2.254493
                         22       1    1gxy3             0.827000       1.746323
                         22       1    1gxy2z            0.827000       3.904897
                         22       1    1gxyz2            0.827000       3.904897
                         22       1    1gxz3             0.827000       1.746323
                         22       1    1gy4              0.827000       0.660048
                         22       1    1gy3z             0.827000       1.746323
                         22       1    1gy2z2            0.827000       2.254493
                         22       1    1gyz3             0.827000       1.746323
                         22       1    1gz4              0.827000       0.660048

     AE Potential information for                                            ALL

       Description:                                       All-electron potential
                                          Krack, Parrinello, PCCP 2, 2105 (2000)

       Gaussian exponent of the core charge distribution:               2.974420
       Electronic configuration (s p d ...):                           6  11   0


 MOLECULE KIND INFORMATION


 All atoms are their own molecule, skipping detailed information


 TOTAL NUMBERS AND MAXIMUM NUMBERS

  Total number of            - Atomic kinds:                                   1
                             - Atoms:                                          2
                             - Shell sets:                                    44
                             - Shells:                                        44
                             - Primitive Cartesian functions:                 82
                             - Cartesian basis functions:                    172
                             - Spherical basis functions:                    140

  Maximum angular momentum of the orbital basis functions:                     4


 MODULE QUICKSTEP:  ATOMIC COORDINATES IN angstrom

  Atom  Kind  Element       X           Y           Z          Z(eff)       Mass

       1     1 Cl  17    8.000000    8.000000    7.006100     17.00      35.4530
       2     1 Cl  17    8.000000    8.000000    8.993900     17.00      35.4530




 SCF PARAMETERS         Density guess:                                   RESTART
                        --------------------------------------------------------
                        max_scf:                                             200
                        max_scf_history:                                       0
                        max_diis:                                              4
                        --------------------------------------------------------
                        eps_scf:                                        1.00E-06
                        eps_scf_history:                                0.00E+00
                        eps_diis:                                       1.00E-01
                        eps_eigval:                                     1.00E-05
                        --------------------------------------------------------
                        level_shift [a.u.]:                                 0.00
                        --------------------------------------------------------
                        Mixing method:                           DIRECT_P_MIXING
                        --------------------------------------------------------
                        No outer SCF

 PW_GRID| Information for grid number                                          1
 PW_GRID| Grid distributed over                                    24 processors
 PW_GRID| Real space group dimensions                                    24    1
 PW_GRID| the grid is blocked:                                                NO
 PW_GRID| Cutoff [a.u.]                                                    400.0
 PW_GRID| spherical cutoff:                                                   NO
 PW_GRID|   Bounds   1           -144     143                Points:         288
 PW_GRID|   Bounds   2           -144     143                Points:         288
 PW_GRID|   Bounds   3           -144     143                Points:         288
 PW_GRID| Volume element (a.u.^3)  0.1157E-02     Volume (a.u.^3)     27641.1785
 PW_GRID| Grid span                                                    FULLSPACE
 PW_GRID|   Distribution                         Average         Max         Min
 PW_GRID|   G-Vectors                           995328.0      995328      995328
 PW_GRID|   G-Rays                                3456.0        3456        3456
 PW_GRID|   Real Space Points                   995328.0      995328      995328

 PW_GRID| Information for grid number                                          2
 PW_GRID| Grid distributed over                                    24 processors
 PW_GRID| Real space group dimensions                                    24    1
 PW_GRID| the grid is blocked:                                                NO
 PW_GRID| Cutoff [a.u.]                                                    200.0
 PW_GRID| spherical cutoff:                                                   NO
 PW_GRID|   Bounds   1           -100      99                Points:         200
 PW_GRID|   Bounds   2           -100      99                Points:         200
 PW_GRID|   Bounds   3           -100      99                Points:         200
 PW_GRID| Volume element (a.u.^3)  0.3455E-02     Volume (a.u.^3)     27641.1785
 PW_GRID| Grid span                                                    FULLSPACE
 PW_GRID|   Distribution                         Average         Max         Min
 PW_GRID|   G-Vectors                           333333.3      333600      333200
 PW_GRID|   G-Rays                                1666.7        1668        1666
 PW_GRID|   Real Space Points                   333333.3      360000      320000

 PW_GRID| Information for grid number                                          3
 PW_GRID| Grid distributed over                                    24 processors
 PW_GRID| Real space group dimensions                                    24    1
 PW_GRID| the grid is blocked:                                                NO
 PW_GRID| Cutoff [a.u.]                                                     66.7
 PW_GRID| spherical cutoff:                                                   NO
 PW_GRID|   Bounds   1            -60      59                Points:         120
 PW_GRID|   Bounds   2            -60      59                Points:         120
 PW_GRID|   Bounds   3            -60      59                Points:         120
 PW_GRID| Volume element (a.u.^3)  0.1600E-01     Volume (a.u.^3)     27641.1785
 PW_GRID| Grid span                                                    FULLSPACE
 PW_GRID|   Distribution                         Average         Max         Min
 PW_GRID|   G-Vectors                            72000.0       72360       71760
 PW_GRID|   G-Rays                                 600.0         603         598
 PW_GRID|   Real Space Points                    72000.0       72000       72000

 PW_GRID| Information for grid number                                          4
 PW_GRID| Grid distributed over                                    24 processors
 PW_GRID| Real space group dimensions                                    24    1
 PW_GRID| the grid is blocked:                                                NO
 PW_GRID| Cutoff [a.u.]                                                     22.2
 PW_GRID| spherical cutoff:                                                   NO
 PW_GRID|   Bounds   1            -36      35                Points:          72
 PW_GRID|   Bounds   2            -36      35                Points:          72
 PW_GRID|   Bounds   3            -36      35                Points:          72
 PW_GRID| Volume element (a.u.^3)  0.7406E-01     Volume (a.u.^3)     27641.1785
 PW_GRID| Grid span                                                    FULLSPACE
 PW_GRID|   Distribution                         Average         Max         Min
 PW_GRID|   G-Vectors                            15552.0       15768       15408
 PW_GRID|   G-Rays                                 216.0         219         214
 PW_GRID|   Real Space Points                    15552.0       15552       15552

 PW_GRID| Information for grid number                                          5
 PW_GRID| Grid distributed over                                    24 processors
 PW_GRID| Real space group dimensions                                    24    1
 PW_GRID| the grid is blocked:                                                NO
 PW_GRID| Cutoff [a.u.]                                                      7.4
 PW_GRID| spherical cutoff:                                                   NO
 PW_GRID|   Bounds   1            -20      19                Points:          40
 PW_GRID|   Bounds   2            -20      19                Points:          40
 PW_GRID|   Bounds   3            -20      19                Points:          40
 PW_GRID| Volume element (a.u.^3)  0.4319         Volume (a.u.^3)     27641.1785
 PW_GRID| Grid span                                                    FULLSPACE
 PW_GRID|   Distribution                         Average         Max         Min
 PW_GRID|   G-Vectors                             2666.7        2720        2640
 PW_GRID|   G-Rays                                  66.7          68          66
 PW_GRID|   Real Space Points                     2666.7        3200        1600

 POISSON| Solver                                          Martyna-Tuckerman (MT)
 POISSON| MT| Alpha                                                        7.000
 POISSON| MT| Relative cutoff                                                2.0
 POISSON| Periodicity                                                       NONE

 RS_GRID| Information for grid number                                          2
 RS_GRID|   Bounds   1           -100      99                Points:         200
 RS_GRID|   Bounds   2           -100      99                Points:         200
 RS_GRID|   Bounds   3           -100      99                Points:         200
 RS_GRID| Real space distribution over                                  4 groups
 RS_GRID| Real space distribution along direction                              2
 RS_GRID| Border size                                                         23
 RS_GRID| Real space distribution over                                  6 groups
 RS_GRID| Real space distribution along direction                              3
 RS_GRID| Border size                                                         23
 RS_GRID|   Distribution                         Average         Max         Min
 RS_GRID|   Planes                                  96.0          96          96
 RS_GRID|   Distribution                         Average         Max         Min
 RS_GRID|   Planes                                  79.3          80          79

 RS_GRID| Information for grid number                                          3
 RS_GRID|   Bounds   1            -60      59                Points:         120
 RS_GRID|   Bounds   2            -60      59                Points:         120
 RS_GRID|   Bounds   3            -60      59                Points:         120
 RS_GRID| Real space distribution over                                  4 groups
 RS_GRID| Real space distribution along direction                              2
 RS_GRID| Border size                                                         26
 RS_GRID| Real space distribution over                                  6 groups
 RS_GRID| Real space distribution along direction                              3
 RS_GRID| Border size                                                         26
 RS_GRID|   Distribution                         Average         Max         Min
 RS_GRID|   Planes                                  82.0          82          82
 RS_GRID|   Distribution                         Average         Max         Min
 RS_GRID|   Planes                                  72.0          72          72

 RS_GRID| Information for grid number                                          4
 RS_GRID|   Bounds   1            -36      35                Points:          72
 RS_GRID|   Bounds   2            -36      35                Points:          72
 RS_GRID|   Bounds   3            -36      35                Points:          72
 RS_GRID| Real space fully replicated
 RS_GRID| Group size                                                           1

 RS_GRID| Information for grid number                                          5
 RS_GRID|   Bounds   1            -20      19                Points:          40
 RS_GRID|   Bounds   2            -20      19                Points:          40
 RS_GRID|   Bounds   3            -20      19                Points:          40
 RS_GRID| Real space fully replicated
 RS_GRID| Group size                                                           1
 
 RI-RPA| using GPW style
 

  HFX_INFO| Replica ID:                                                        1
  HFX_INFO| EPS_SCHWARZ:                                                 2.0E-17
  HFX_INFO| EPS_SCHWARZ_FORCES                                           1.0E-06
  HFX_INFO| EPS_STORAGE_SCALING:                                         1.0E+00
  HFX_INFO| NBINS:                                                            64
  HFX_INFO| BLOCK_SIZE:                                                        1
  HFX_INFO| FRACTION:                                               1.0000000000
  HFX_INFO| Interaction Potential:                                       COULOMB
  HFX_INFO| Number of periodic shells considered:                           NONE
  HFX_INFO| Number of periodic cells considered:                            NONE


 Number of electrons:                                                         34
 Number of occupied orbitals:                                                 17
 Number of molecular orbitals:                                                17

 Number of orbital functions:                                                140
 Number of independent orbital functions:                                    140

 Extrapolation method: initial_guess

 *** WARNING in qs_initial_guess.F:267 :: User requested to restart the   ***
 *** wavefunction from the file named: ALL_ELEC-RESTART.wfn. This file    ***
 *** does not exist. Please check the existence of the file or change     ***
 *** properly the value of the keyword WFN_RESTART_FILE_NAME. Calculation ***
 *** continues using ATOMIC GUESS.                                        ***


 Atomic guess: The first density matrix is obtained in terms of atomic orbitals
               and electronic configurations assigned to each atomic kind

 Guess for atomic kind: Cl

 Electronic structure
    Total number of core electrons                                          0.00
    Total number of valence electrons                                      17.00
    Total number of electrons                                              17.00
    Multiplicity                                                   not specified
    S      2.00  2.00  2.00
    P      6.00  5.00


 *******************************************************************************
                  Iteration          Convergence                     Energy [au]
 *******************************************************************************
                          1        0.699329                    -458.624850450175
                          2        0.394338                    -458.637463305767
                          3        0.693584E-01                -458.654374765209
                          4        0.162624E-01                -458.655635383770
                          5        0.191671E-04                -458.655707562263
                          6        0.795585E-05                -458.655707562506
                          7        0.133931E-06                -458.655707562529

 Energy components [Hartree]           Total Energy ::         -458.655707562529
                                        Band Energy ::         -264.483753331235
                                     Kinetic Energy ::          457.665685754935
                                   Potential Energy ::         -916.321393317464
                                      Virial (-V/T) ::            2.002163198681
                                        Core Energy ::         -634.777031212969
                                          XC Energy ::          -26.620511108662
                                     Coulomb Energy ::          202.741834759102

 Orbital energies  State     L     Occupation   Energy[a.u.]          Energy[eV]

                       1     0          2.000    -100.370532        -2731.221088
                       2     0          2.000      -9.190085         -250.074928
                       3     0          2.000      -0.753794          -20.511774

                       1     1          6.000      -7.042771         -191.643556
                       2     1          5.000      -0.319660           -8.698404


 Total Electron Density at R=0:                                      3175.779141
 Re-scaling the density matrix to get the right number of electrons
                  # Electrons              Trace(P)               Scaling factor
                           34                34.000                        1.000


 SCF WAVEFUNCTION OPTIMIZATION

  Step     Update method      Time    Convergence         Total energy    Change
  ------------------------------------------------------------------------------
     1 P_Mix/Diag. 0.40E+00    2.6     0.17225329      -920.2326982597 -9.20E+02
     2 P_Mix/Diag. 0.40E+00    2.5     0.10401481      -920.1622758824  7.04E-02
     3 P_Mix/Diag. 0.40E+00    2.9     0.06312104      -920.1183958687  4.39E-02
     4 DIIS/Diag.  0.79E-02    2.9     0.03908544      -920.0916677759  2.67E-02
     5 DIIS/Diag.  0.93E-03    2.9     0.00015192      -920.0512442615  4.04E-02
     6 DIIS/Diag.  0.15E-02    2.9     0.00019864      -920.0512428932  1.37E-06
     7 DIIS/Diag.  0.76E-03    2.9     0.00018621      -920.0512441595 -1.27E-06
     8 DIIS/Diag.  0.24E-04    3.0     0.00000489      -920.0512448622 -7.03E-07
     9 DIIS/Diag.  0.49E-05    3.0     0.00000191      -920.0512448628 -5.25E-10
    10 DIIS/Diag.  0.30E-05    3.0     0.00000044      -920.0512448628 -2.35E-11

  *** SCF run converged in    10 steps ***


  Electronic density on regular grids:        -16.2129016481       17.7870983519
  Core density on regular grids:               34.0000000000        0.0000000000
  Hard and soft densities (Lebedev):          -35.6516943761      -17.8645961699
  Total Rho_soft + Rho1_hard - Rho1_soft      -33.9999998544
  Total charge density (r-space):               0.0000001456
  Total Rho_soft + Rho0_soft (g-space):        -0.0000003141

  Overlap energy of the core charge distribution:               0.00000000712846
  Self energy of the core charge distribution:               -397.68485279341849
  Core Hamiltonian energy:                                   -531.29627883307626
  Hartree energy:                                              65.70373413970563
  Exchange-correlation energy:                                 -7.40361457685021

  GAPW| Exc from hard and soft atomic rho1:                   -48.66755798407615
  GAPW| local Eh = 1 center integrals:                         -0.70267482220218

  Total energy:                                              -920.05124486278942

 !-----------------------------------------------------------------------------!
                     Mulliken Population Analysis

 #  Atom  Element  Kind  Atomic population                           Net charge
       1     Cl       1         17.000000                              0.000000
       2     Cl       1         17.000000                             -0.000000
 # Total charge                             34.000000                  0.000000

 !-----------------------------------------------------------------------------!

 !-----------------------------------------------------------------------------!
                           Hirshfeld Charges

  #Atom  Element  Kind  Ref Charge     Population                    Net charge
      1       Cl     1      17.000         17.000                         0.000
      2       Cl     1      17.000         17.000                         0.000

  Total Charge                                                            0.001
[...]
  MEMORY_INFO| Memory cut:                                                     1
  MEMORY_INFO| Im. time group size for RI functions:                           1
  MEMORY_INFO| Im. time group size for local P matrix:                         1
  SPARSITY_INFO| Eps pgf orb for imaginary time:                        1.00E-30
  SPARSITY_INFO| Eps filter for imaginary time:                         1.00E-30
  SPARSITY_INFO| Second eps filter for imaginary time:                  1.00E-30
  RPA_IM_TIME_INFO| Number of periodic images T for Chi_PQ^T(it):              1
  RPA_IM_TIME_INFO| Number of periodic images T for Chi_PQ^T(it):              1
  RPA_IM_TIME_INFO| Number of periodic images T for Chi_PQ^T(it):              1
  RPA_IM_TIME_INFO| Number of periodic images T for Chi_PQ^T(it):              1
  RPA_IM_TIME_INFO| Number of periodic images T for Chi_PQ^T(it):              1
  RPA_IM_TIME_INFO| Number of periodic images T for Chi_PQ^T(it):              1
  RPA_IM_TIME_INFO| Number of periodic images T for Chi_PQ^T(it):              1
  RPA_IM_TIME_INFO| Number of periodic images T for Chi_PQ^T(it):              1
  RPA_IM_TIME_INFO| Number of periodic images T for Chi_PQ^T(it):              1
  RPA_IM_TIME_INFO| Number of periodic images T for Chi_PQ^T(it):              1
  RPA_IM_TIME_INFO| Number of periodic images T for Chi_PQ^T(it):              1
  RPA_IM_TIME_INFO| Number of periodic images T for Chi_PQ^T(it):              1
  RPA_IM_TIME_INFO| Number of periodic images T for Chi_PQ^T(it):              1
  RPA_IM_TIME_INFO| Number of periodic images T for Chi_PQ^T(it):              1
  
  GW quasiparticle energies
  -------------------------
   
  The GW quasiparticle energies are calculated according to: 
  E_GW = E_SCF + Z * ( Sigc(E_SCF) + Sigx - vxc )
   
  The energy unit of the following table is eV.  Sigc_fit is a very conservative
  estimate of the statistical error of the fitting.
   
            MO      E_SCF       Sigc   Sigc_fit   Sigx-vxc          Z       E_GW
     8 ( occ )   -191.614     -1.773      0.000    -28.039      1.000   -221.426
     9 ( occ )   -191.614     -1.783      0.000    -28.039      1.000   -221.436
    10 ( occ )   -191.614     -1.783      0.000    -28.039      1.000   -221.436
    11 ( occ )    -23.461      6.594      0.000     -9.452      1.000    -26.319
    12 ( occ )    -19.099      5.361      0.000     -8.320      1.000    -22.059
    13 ( occ )    -11.985      0.463      0.000     -3.956      1.000    -15.478
    14 ( occ )     -9.987      1.674      0.000     -5.342      1.000    -13.655
    15 ( occ )     -9.987      1.674      0.000     -5.342      1.000    -13.655
    16 ( occ )     -7.287      0.761      0.000     -4.532      1.000    -11.058
    17 ( occ )     -7.287      0.761      0.000     -4.532      1.000    -11.058
    18 ( vir )     -4.210     -2.363      0.000      5.543      1.000     -1.030
    19 ( vir )      3.174     -1.817      0.000      4.599      1.000      5.955
    20 ( vir )      3.210     -1.172      0.000      3.396      1.000      5.434
    21 ( vir )      3.900     -1.078      0.000      3.773      1.000      6.595
    22 ( vir )      3.900     -1.078      0.000      3.773      1.000      6.595
    23 ( vir )      4.720     -1.711      0.000      4.178      1.000      7.186
    24 ( vir )      5.166     -2.382      0.000      5.746      1.000      8.529
    25 ( vir )      5.166     -2.382      0.000      5.746      1.000      8.529
    26 ( vir )      5.336     -0.929      0.000      3.497      1.000      7.903
    27 ( vir )      5.336     -0.929      0.000      3.497      1.000      7.903
   
  GW HOMO-LUMO gap (eV)                                                    10.03
  

  Total RI-RPA Time=                                                  142.377800
  RI-RPA energy  =                                             -1.30099396123870

  Total EXX Time=                                                      19.223659
  EXX energy  =                                               -55.00112856961071

 ENERGY| Total FORCE_EVAL ( QS ) energy (a.u.):             -920.282198501102698


 -------------------------------------------------------------------------------
 -                                                                             -
 -                                DBCSR STATISTICS                             -
 -                                                                             -
 -------------------------------------------------------------------------------
 COUNTER                                    TOTAL       BLAS       SMM       ACC
 flops    70 x    70 x    70              2744000     100.0%      0.0%      0.0%
 flops    70 x    70 x    17              4998000     100.0%      0.0%      0.0%
 flops   140 x   140 x    70              5488000     100.0%      0.0%      0.0%
 flops   230 x   230 x   230           2725408000     100.0%      0.0%      0.0%
 flops   460 x   140 x    70          10097920000     100.0%      0.0%      0.0%
 flops    70 x  1400 x    70          12512640000     100.0%      0.0%      0.0%
 flops   460 x   140 x   230          16589440000     100.0%      0.0%      0.0%
 flops   230 x   230 x   840          39814656000     100.0%      0.0%      0.0%
 flops    70 x  1330 x    70          59435040000     100.0%      0.0%      0.0%
 flops   230 x   230 x   805          76311424000     100.0%      0.0%      0.0%
 flops inhomo. stacks                           0       0.0%      0.0%      0.0%
 flops total                       217.499758E+09     100.0%      0.0%      0.0%
 flops max/rank                     37.167214E+09     100.0%      0.0%      0.0%
 matmuls inhomo. stacks                         0       0.0%      0.0%      0.0%
 matmuls total                               8644     100.0%      0.0%      0.0%
 number of processed stacks                  2754     100.0%      0.0%      0.0%
 average stack size                                     3.1       0.0       0.0
 marketing flops                   218.758382E+09
 -------------------------------------------------------------------------------
 # multiplications                            909
 max memory usage/rank             670.244864E+06
 # max total images/rank                        3
 # max 3D layers                                1
 # MPI messages exchanged                  394896
 MPI messages size (bytes):
  total size                         4.702062E+09
  min size                           0.000000E+00
  max size                         846.400000E+03
  average size                      11.907090E+03
 MPI breakdown and total messages size (bytes):
             size <=      128              381120                        0
       128 < size <=     8192                   0                        0
      8192 < size <=    32768                  80                  1523200
     32768 < size <=   131072                3392                265697600
    131072 < size <=  4194304               10304               4434841600
   4194304 < size <= 16777216                   0                        0
  16777216 < size                               0                        0
 -------------------------------------------------------------------------------

 *** WARNING in dbcsr_mm.F:278 :: Using a non-square number of MPI ranks ***
 *** might lead to poor performance. Used ranks: 24 Suggested: 25 49     ***

 -------------------------------------------------------------------------------
 -                                                                             -
 -                      DBCSR MESSAGE PASSING PERFORMANCE                      -
 -                                                                             -
 -------------------------------------------------------------------------------

 ROUTINE             CALLS      AVE VOLUME [Bytes]
 MP_Group               43
 MP_Bcast               11                     12.
 MP_Allreduce         5149                      8.
 MP_Alltoall          2863                  70167.
 MP_Wait             49528
 MP_ISend            36544                  28601.
 MP_IRecv            36544                     62.
 MP_Memory           66818
 -------------------------------------------------------------------------------


 MEMORY| Estimated peak process memory [MiB]                                 640

 -------------------------------------------------------------------------------
 ----                             MULTIGRID INFO                            ----
 -------------------------------------------------------------------------------
 count for grid        1:         148956          cutoff [a.u.]          200.00
 count for grid        2:          14109          cutoff [a.u.]           66.67
 count for grid        3:           6486          cutoff [a.u.]           22.22
 count for grid        4:           1068          cutoff [a.u.]            7.41
 total gridlevel count  :         170619

 -------------------------------------------------------------------------------
 -                                                                             -
 -                         MESSAGE PASSING PERFORMANCE                         -
 -                                                                             -
 -------------------------------------------------------------------------------

 ROUTINE             CALLS      AVE VOLUME [Bytes]
 MP_Group                5
 MP_Bcast              160                1878886.
 MP_Allreduce          550                 169333.
 MP_Sync                81
 MP_Alltoall           303                9372675.
 MP_ISendRecv         1104                  73700.
 MP_Wait              3496
 MP_comm_split          19
 MP_ISend             4736                 189586.
 MP_IRecv             4096                 336135.
 MP_Recv                 5                   3360.
 -------------------------------------------------------------------------------


 -------------------------------------------------------------------------------
 -                                                                             -
 -                           R E F E R E N C E S                               -
 -                                                                             -
 -------------------------------------------------------------------------------
 
 CP2K version 7.0 (Development Version), the CP2K developers group (2018).
 CP2K is freely available from https://www.cp2k.org/ .

 Schuett, Ole; Messmer, Peter; Hutter, Juerg; VandeVondele, Joost. 
 Electronic Structure Calculations on Graphics Processing Units, John Wiley & Sons, Ltd, 173-190 (2016). 
 GPU-Accelerated Sparse Matrix-Matrix Multiplication for Linear Scaling Density Functional Theory.
 https://dx.doi.org/10.1002/9781118670712.ch8


 Del Ben, M; Schuett, O; Wentz, T; Messmer, P; Hutter, J;
 VandeVondele, J. 
 COMPUTER PHYSICS COMMUNICATIONS, 187, 120-129 (2015). 
 Enabling simulation at the fifth rung of DFT: Large scale RPA
 calculations with excellent time to solution.
 https://dx.doi.org/10.1016/j.cpc.2014.10.021


 Borstnik, U; VandeVondele, J; Weber, V; Hutter, J. 
 PARALLEL COMPUTING, 40 (5-6), 47-58 (2014). 
 Sparse matrix multiplication: The distributed block-compressed sparse
 row library.
 https://dx.doi.org/10.1016/j.parco.2014.03.012


 Hutter, J; Iannuzzi, M; Schiffmann, F; VandeVondele, J. 
 WILEY INTERDISCIPLINARY REVIEWS-COMPUTATIONAL MOLECULAR SCIENCE, 4 (1), 15-25 (2014). 
 CP2K: atomistic simulations of condensed matter systems.
 https://dx.doi.org/10.1002/wcms.1159


 Del Ben, M; Hutter, J; VandeVondele, J. 
 JOURNAL OF CHEMICAL THEORY AND COMPUTATION, 9 (6), 2654-2671 (2013). 
 Electron Correlation in the Condensed Phase from a Resolution of
 Identity Approach Based on the Gaussian and Plane Waves Scheme.
 https://dx.doi.org/10.1021/ct4002202


 Del Ben, M; Hutter, J; VandeVondele, J. 
 JOURNAL OF CHEMICAL THEORY AND COMPUTATION, 8 (11), 4177-4188 (2012). 
 Second-Order Moller-Plesset Perturbation Theory in the Condensed Phase:
 An Efficient and Massively Parallel Gaussian and Plane Waves Approach.
 https://dx.doi.org/10.1021/ct300531w


 Guidon, M; Hutter, J; VandeVondele, J. 
 JOURNAL OF CHEMICAL THEORY AND COMPUTATION, 5 (11), 3010-3021 (2009). 
 Robust Periodic Hartree-Fock Exchange for Large-Scale Simulations Using
 Gaussian Basis Sets.
 https://dx.doi.org/10.1021/ct900494g


 Guidon, M; Schiffmann, F; Hutter, J; VandeVondele, J. 
 JOURNAL OF CHEMICAL PHYSICS, 128 (21), 214104 (2008). 
 Ab initio molecular dynamics using hybrid density functionals.
 https://dx.doi.org/10.1063/1.2931945


 Frigo, M; Johnson, SG. 
 PROCEEDINGS OF THE IEEE, 93 (2), 216-231 (2005). 
 The design and implementation of FFTW3.
 https://dx.doi.org/10.1109/JPROC.2004.840301


 Lippert, G; Hutter, J; Parrinello, M. 
 THEORETICAL CHEMISTRY ACCOUNTS, 103 (2), 124-140 (1999). 
 The Gaussian and augmented-plane-wave density functional method for ab
 initio molecular dynamics simulations.
 https://dx.doi.org/10.1007/s002140050523


 Krack, M; Parrinello, M. 
 PHYSICAL CHEMISTRY CHEMICAL PHYSICS, 2 (10), 2105-2112 (2000). 
 All-electron ab-initio molecular dynamics.
 https://dx.doi.org/10.1039/b001167n


 Martyna, GJ; Tuckerman, ME. 
 JOURNAL OF CHEMICAL PHYSICS, 110 (6), 2810-2821 (1999). 
 A reciprocal space based method for treating long range interactions in
 ab initio and force-field-based calculations in clusters.
 https://dx.doi.org/10.1063/1.477923


 Perdew, JP; Burke, K; Ernzerhof, M. 
 PHYSICAL REVIEW LETTERS, 77 (18), 3865-3868 (1996). 
 Generalized gradient approximation made simple.
 https://dx.doi.org/10.1103/PhysRevLett.77.3865


 -------------------------------------------------------------------------------
 -                                                                             -
 -                                T I M I N G                                  -
 -                                                                             -
 -------------------------------------------------------------------------------
 SUBROUTINE                       CALLS  ASD         SELF TIME        TOTAL TIME
                                MAXIMUM       AVERAGE  MAXIMUM  AVERAGE  MAXIMUM
 CP2K                                 1  1.0    0.031    0.061  192.959  192.960
 qs_energies                          1  2.0    0.000    0.000  191.528  191.533
 mp2_main                             1  3.0    0.000    0.001  161.612  161.617
 mp2_gpw_main                         1  4.0    0.000    0.001  142.373  142.378
 mp2_ri_gpw_compute_in                1  5.0    0.000    0.000   82.587  111.358
 compute_3c_overlap_int               1  6.0   27.165   36.636   81.766  110.537
 mp_comm_split_direct                 8  6.6   29.148   94.280   29.148   94.280
 create_dbcsr_matrices_im_time        1  5.0    0.001    0.001   28.775   93.753
 compute_3c_overlap_int_put_dbc   38360  7.0   53.967   74.547   53.967   74.547
 rpa_ri_compute_en                    1  5.0    0.000    0.000   31.008   31.012
 rpa_num_int                          1  6.0    0.001    0.002   31.005   31.010
 scf_env_do_scf                       1  3.0    0.000    0.000   29.026   29.026
 scf_env_do_scf_inner_loop           10  4.0    0.001    0.002   29.026   29.026
 qs_ks_build_kohn_sham_matrix        11  6.8    0.003    0.004   25.667   25.694
 qs_ks_update_qs_env                 10  5.0    0.000    0.000   24.459   24.483
 rebuild_ks_matrix                   10  6.0    0.000    0.000   24.457   24.482
 compute_vec_Sigma_x_minus_vxc_       1  4.0    0.000    0.000   19.224   19.224
 integrate_four_center                1  5.0    0.004    0.005   18.003   18.004
 dbcsr_multiply_generic             909  9.9    0.066    0.079   13.423   16.072
 pw_transfer                        228  9.5    0.025    0.029   14.863   15.537
 fft_wrap_pw1pw2                    193 10.6    0.004    0.004   14.655   15.394
 fft_wrap_pw1pw2_200                126 11.7    0.844    1.118   13.695   14.382
 multiply_cannon                    909 10.9    0.163    0.201    9.390   13.671
 fft3d_ps                           193 12.6    5.211    5.910   10.848   12.440
 GW_postprocessing                    1  7.0    0.000    0.000   12.393   12.393
 compute_self_energy_im_time_gw       1  8.0    0.003    0.005   12.392   12.393
 mp_sync                             81  8.7    7.936   10.079    7.936   10.079
 mp_waitall_1                     50992 13.5    4.851    9.793    4.851    9.793
 qs_vxc_create                       11  7.8    0.000    0.001    9.727    9.727
 xc_vxc_pw_create                    10  9.0    0.127    0.143    9.727    9.727
 mp_sum_d                          1153  6.7    5.872    9.511    5.872    9.511
 multiply_cannon_multrec          10435 11.9    2.371    9.461    3.436    9.507
 multiply_cannon_metrocomm3       10435 11.9    0.018    0.027    3.201    9.473
 integrate_four_center_main           1  6.0    0.000    0.000    1.817    9.183
 integrate_four_center_bin          128  7.0    1.817    9.183    1.817    9.183
 multiply_cannon_metrocomm1       10435 11.9    0.012    0.017    1.341    7.944
 mp_alltoall_z22v                   193 14.6    3.679    7.558    3.679    7.558
 compute_self_energy_im_time_gw     280  9.0    0.002    0.003    5.095    6.605
 rs_pw_transfer                     112  9.3    0.003    0.004    5.822    6.190
 calc_screening_functions             1  6.0    3.270    3.434    5.447    5.831
 compute_mat_P_omega                  1  7.0    0.000    0.001    5.793    5.802
 rpa_num_int_im_t_alloc_mat_gw        1  7.0    0.000    0.000    0.301    5.481
 allocate_matrices_gw_im_time         1  8.0    0.000    0.000    0.301    5.481
 get_mat_3c_overl_int_gw              1  9.0    0.001    0.001    0.300    5.481
 fill_mat_3c_overl_int_gw             1 10.0    0.000    0.000    0.271    5.450
 rpa_num_int_im_t_alloc_mat_24        1  7.0    0.000    0.000    5.180    5.415
 cp_fm_copy_general                   2  8.0    0.000    0.000    5.179    5.414
 cp_fm_start_copy_general             2  9.0    0.001    0.001    5.179    5.413
 mp_allgather_i                       4 10.0    5.178    5.412    5.178    5.412
 GW3c_fill_mat                        1 11.0    0.107    2.557    0.225    5.406
 xc_rho_set_and_dset_create          10 10.0    0.087    0.099    4.430    5.154
 dbcsr_trace_a_b_d                  582  9.9    0.005    0.073    2.369    5.100
 compute_self_energy_im_time_gw     280  9.0    0.001    0.001    2.332    5.066
 prepare_gapw_den                    11  7.8    0.000    0.000    4.971    5.035
 mp_sum_l                          4507 10.9    2.505    5.029    2.505    5.029
 yz_to_x                             97 13.2    0.917    1.219    3.141    4.985
 qs_rho_update_rho                   11  5.0    0.000    0.000    4.755    4.756
 mp_sum_dm                           72  7.7    2.503    4.714    2.503    4.714
 calculate_rho_elec                  11  6.0    0.126    0.871    4.683    4.683
 density_rs2pw                       11  7.0    0.001    0.001    4.266    4.439
 mp_waitany                        1948 11.3    2.601    4.226    2.601    4.226
 powell_optimize                 657591  7.0    3.620    4.143    3.620    4.143
 -------------------------------------------------------------------------------

 The number of warnings for this run is : 3
 
 -------------------------------------------------------------------------------
  **** **** ******  **  PROGRAM ENDED AT                 2019-05-31 02:20:44.361
 ***** ** ***  *** **   PROGRAM RAN ON                                    tcopt4
 **    ****   ******    PROGRAM RAN BY                                   wilhelm
 ***** **    ** ** **   PROGRAM PROCESS ID                                 22149
  **** **  *******  **  PROGRAM STOPPED IN /data/wilhelm/2_job_test/11_GW100/3_c
                                           alcs/17_Cl2
