 DBCSR| CPU Multiplication driver                                           BLAS
 DBCSR| Multrec recursion limit                                              512
 DBCSR| Multiplication stack size                                           1000
 DBCSR| Maximum elements for images                                    UNLIMITED
 DBCSR| Multiplicative factor virtual images                                   1
 DBCSR| Use multiplication densification                                       T
 DBCSR| Multiplication size stacks                                             3
 DBCSR| Number of 3D layers                                               SINGLE
 DBCSR| Use MPI memory allocation                                              T
 DBCSR| Use RMA algorithm                                                      F
 DBCSR| Use Communication thread                                               T
 DBCSR| Communication thread load                                             87


  **** **** ******  **  PROGRAM STARTED AT               2019-05-31 16:21:12.115
 ***** ** ***  *** **   PROGRAM STARTED ON                                tcopt4
 **    ****   ******    PROGRAM STARTED BY                               wilhelm
 ***** **    ** ** **   PROGRAM PROCESS ID                                 75820
  **** **  *******  **  PROGRAM STARTED IN /data/wilhelm/2_job_test/11_GW100/3_c
                                           alcs/01_He

 CP2K| version string:                    CP2K version 7.0 (Development Version)
 CP2K| source code revision number:                                  git:026fb12
 CP2K| cp2kflags: libint fftw3 libxc pexsi elpa=201705 parallel mpi3 scalapack q
 CP2K|            uip libderiv_max_am1=5 libint_max_am=6
 CP2K| is freely available from                            https://www.cp2k.org/
 CP2K| Program compiled at                         Sat May 11 13:15:02 CEST 2019
 CP2K| Program compiled on                                                tcopt4
 CP2K| Program compiled for                            local_valgrind_March_2019
 CP2K| Data directory path              /data/wilhelm/1_git_repository/cp2k/data
 CP2K| Input file name                                                    GW.inp

 GLOBAL| Force Environment number                                              1
 GLOBAL| Basis set file name                              BASIS_def2_QZVP_RI_ALL
 GLOBAL| Potential file name                                           POTENTIAL
 GLOBAL| MM Potential file name                                     MM_POTENTIAL
 GLOBAL| Coordinate file name                                          01_He.xyz
 GLOBAL| Method name                                                        CP2K
 GLOBAL| Project name                                                   ALL_ELEC
 GLOBAL| Preferred FFT library                                             FFTW3
 GLOBAL| Preferred diagonalization lib.                                       SL
 GLOBAL| Run type                                                         ENERGY
 GLOBAL| All-to-all communication in single precision                          F
 GLOBAL| FFTs using library dependent lengths                                  F
 GLOBAL| Global print level                                               MEDIUM
 GLOBAL| MPI I/O enabled                                                       T
 GLOBAL| Total number of message passing processes                            40
 GLOBAL| Number of threads for this process                                    1
 GLOBAL| This output is from process                                           0
 GLOBAL| CPU model name :  Intel(R) Xeon(R) CPU E5-2697 v3 @ 2.60GHz

 MEMORY| system memory details [Kb]
 MEMORY|                        rank 0           min           max       average
 MEMORY| MemTotal            396954008     396954008     396954008     396954008
 MEMORY| MemFree             376761624     376761624     376761624     376761624
 MEMORY| Buffers                333296        333296        333296        333296
 MEMORY| Cached               16032524      16032524      16032524      16032524
 MEMORY| Slab                   589356        589356        589356        589356
 MEMORY| SReclaimable           457716        457716        457716        457716
 MEMORY| MemLikelyFree       393585160     393585160     393585160     393585160


 *** Fundamental physical constants (SI units) ***

 *** Literature: B. J. Mohr and B. N. Taylor,
 ***             CODATA recommended values of the fundamental physical
 ***             constants: 2006, Web Version 5.1
 ***             http://physics.nist.gov/constants

 Speed of light in vacuum [m/s]                             2.99792458000000E+08
 Magnetic constant or permeability of vacuum [N/A**2]       1.25663706143592E-06
 Electric constant or permittivity of vacuum [F/m]          8.85418781762039E-12
 Planck constant (h) [J*s]                                  6.62606896000000E-34
 Planck constant (h-bar) [J*s]                              1.05457162825177E-34
 Elementary charge [C]                                      1.60217648700000E-19
 Electron mass [kg]                                         9.10938215000000E-31
 Electron g factor [ ]                                     -2.00231930436220E+00
 Proton mass [kg]                                           1.67262163700000E-27
 Fine-structure constant                                    7.29735253760000E-03
 Rydberg constant [1/m]                                     1.09737315685270E+07
 Avogadro constant [1/mol]                                  6.02214179000000E+23
 Boltzmann constant [J/K]                                   1.38065040000000E-23
 Atomic mass unit [kg]                                      1.66053878200000E-27
 Bohr radius [m]                                            5.29177208590000E-11

 *** Conversion factors ***

 [u] -> [a.u.]                                              1.82288848426455E+03
 [Angstrom] -> [Bohr] = [a.u.]                              1.88972613288564E+00
 [a.u.] = [Bohr] -> [Angstrom]                              5.29177208590000E-01
 [a.u.] -> [s]                                              2.41888432650478E-17
 [a.u.] -> [fs]                                             2.41888432650478E-02
 [a.u.] -> [J]                                              4.35974393937059E-18
 [a.u.] -> [N]                                              8.23872205491840E-08
 [a.u.] -> [K]                                              3.15774647902944E+05
 [a.u.] -> [kJ/mol]                                         2.62549961709828E+03
 [a.u.] -> [kcal/mol]                                       6.27509468713739E+02
 [a.u.] -> [Pa]                                             2.94210107994716E+13
 [a.u.] -> [bar]                                            2.94210107994716E+08
 [a.u.] -> [atm]                                            2.90362800883016E+08
 [a.u.] -> [eV]                                             2.72113838565563E+01
 [a.u.] -> [Hz]                                             6.57968392072181E+15
 [a.u.] -> [1/cm] (wave numbers)                            2.19474631370540E+05
 [a.u./Bohr**2] -> [1/cm]                                   5.14048714338585E+03
 

 CELL_TOP| Volume [angstrom^3]:                                         4096.000
 CELL_TOP| Vector a [angstrom    16.000     0.000     0.000    |a| =      16.000
 CELL_TOP| Vector b [angstrom     0.000    16.000     0.000    |b| =      16.000
 CELL_TOP| Vector c [angstrom     0.000     0.000    16.000    |c| =      16.000
 CELL_TOP| Angle (b,c), alpha [degree]:                                   90.000
 CELL_TOP| Angle (a,c), beta  [degree]:                                   90.000
 CELL_TOP| Angle (a,b), gamma [degree]:                                   90.000
 CELL_TOP| Numerically orthorhombic:                                         YES

 GENERATE|  Preliminary Number of Bonds generated:                             0
 GENERATE|  Achieved consistency in connectivity generation.

 CELL| Volume [angstrom^3]:                                             4096.000
 CELL| Vector a [angstrom]:      16.000     0.000     0.000    |a| =      16.000
 CELL| Vector b [angstrom]:       0.000    16.000     0.000    |b| =      16.000
 CELL| Vector c [angstrom]:       0.000     0.000    16.000    |c| =      16.000
 CELL| Angle (b,c), alpha [degree]:                                       90.000
 CELL| Angle (a,c), beta  [degree]:                                       90.000
 CELL| Angle (a,b), gamma [degree]:                                       90.000
 CELL| Numerically orthorhombic:                                             YES

 CELL_REF| Volume [angstrom^3]:                                         4096.000
 CELL_REF| Vector a [angstrom    16.000     0.000     0.000    |a| =      16.000
 CELL_REF| Vector b [angstrom     0.000    16.000     0.000    |b| =      16.000
 CELL_REF| Vector c [angstrom     0.000     0.000    16.000    |c| =      16.000
 CELL_REF| Angle (b,c), alpha [degree]:                                   90.000
 CELL_REF| Angle (a,c), beta  [degree]:                                   90.000
 CELL_REF| Angle (a,b), gamma [degree]:                                   90.000
 CELL_REF| Numerically orthorhombic:                                         YES

 *******************************************************************************
 *******************************************************************************
 **                                                                           **
 **     #####                         ##              ##                      **
 **    ##   ##            ##          ##              ##                      **
 **   ##     ##                       ##            ######                    **
 **   ##     ##  ##   ##  ##   #####  ##  ##   ####   ##    #####    #####    **
 **   ##     ##  ##   ##  ##  ##      ## ##   ##      ##   ##   ##  ##   ##   **
 **   ##  ## ##  ##   ##  ##  ##      ####     ###    ##   ######   ######    **
 **    ##  ###   ##   ##  ##  ##      ## ##      ##   ##   ##       ##        **
 **     #######   #####   ##   #####  ##  ##  ####    ##    #####   ##        **
 **           ##                                                    ##        **
 **                                                                           **
 **                                                ... make the atoms dance   **
 **                                                                           **
 **            Copyright (C) by CP2K developers group (2000 - 2019)           **
 **                                                                           **
 *******************************************************************************

 DFT| Spin restricted Kohn-Sham (RKS) calculation                            RKS
 DFT| Multiplicity                                                             1
 DFT| Number of spin states                                                    1
 DFT| Charge                                                                   0
 DFT| Self-interaction correction (SIC)                                       NO
 DFT| Cutoffs: density                                              1.000000E-10
 DFT|          gradient                                             1.000000E-10
 DFT|          tau                                                  1.000000E-10
 DFT|          cutoff_smoothing_range                               0.000000E+00
 DFT| XC density smoothing                                                  NONE
 DFT| XC derivatives                                                          PW
 FUNCTIONAL| ROUTINE=NEW
 FUNCTIONAL| PBE:
 FUNCTIONAL| J.P.Perdew, K.Burke, M.Ernzerhof, Phys. Rev. Letter, vol. 77, n 18,
 FUNCTIONAL|  pp. 3865-3868, (1996){spin unpolarized}                           

 QS| Method:                                                                GAPW
 QS| Density plane wave grid type                        NON-SPHERICAL FULLSPACE
 QS| Number of grid levels:                                                    4
 QS| Density cutoff [a.u.]:                                                200.0
 QS| Multi grid cutoff [a.u.]: 1) grid level                               200.0
 QS|                           2) grid level                                66.7
 QS|                           3) grid level                                22.2
 QS|                           4) grid level                                 7.4
 QS| Grid level progression factor:                                          3.0
 QS| Relative density cutoff [a.u.]:                                        25.0
 QS| Consistent realspace mapping and integration 
 QS| Interaction thresholds: eps_pgf_orb:                                1.0E-05
 QS|                         eps_filter_matrix:                          0.0E+00
 QS|                         eps_core_charge:                            1.0E-12
 QS|                         eps_rho_gspace:                             1.0E-10
 QS|                         eps_rho_rspace:                             1.0E-10
 QS|                         eps_gvg_rspace:                             1.0E-05
 QS|                         eps_ppl:                                    1.0E-02
 QS|                         eps_ppnl:                                   1.0E-07
 QS| GAPW|                   eps_fit:                                    1.0E-04
 QS| GAPW|                   eps_iso:                                    1.0E-12
 QS| GAPW|                   eps_svd:                                    1.0E-08
 QS| GAPW|                   eps_cpc:                                    1.0E-10
 QS| GAPW|   atom-r-grid: quadrature:                 GC_LOG                        
 QS| GAPW|      atom-s-grid:  max l :                                          6
 QS| GAPW|      max_l_rho0 :                                                   2


 ATOMIC KIND INFORMATION

  1. Atomic kind: He                                    Number of atoms:       1

     Orbital Basis Set                                                 def2-QZVP

       Number of orbital shell sets:                                          10
       Number of orbital shells:                                              10
       Number of primitive Cartesian functions:                               14
       Number of Cartesian basis functions:                                   35
       Number of spherical basis functions:                                   30
       Norm type:                                                              2

       Normalised Cartesian orbitals:

                        Set   Shell   Orbital            Exponent    Coefficient

                          1       1    1s             1144.647081       0.231717
                                                       171.645967       0.431697
                                                        39.066056       0.730707
                                                        11.051402       1.103692
                                                         3.572557       1.379698

                          2       1    1s                1.242942       0.838973

                          3       1    1s                0.448077       0.390323

                          4       1    1s                0.164116       0.183769

                          5       1    1px               5.994000      13.368603
                          5       1    1py               5.994000      13.368603
                          5       1    1pz               5.994000      13.368603

                          6       1    1px               1.745000       2.858804
                          6       1    1py               1.745000       2.858804
                          6       1    1pz               1.745000       2.858804

                          7       1    1px               0.560000       0.690518
                          7       1    1py               0.560000       0.690518
                          7       1    1pz               0.560000       0.690518

                          8       1    1dx2              4.299000      21.125281
                          8       1    1dxy              4.299000      36.590059
                          8       1    1dxz              4.299000      36.590059
                          8       1    1dy2              4.299000      21.125281
                          8       1    1dyz              4.299000      36.590059
                          8       1    1dz2              4.299000      21.125281

                          9       1    1dx2              1.223000       2.341023
                          9       1    1dxy              1.223000       4.054771
                          9       1    1dxz              1.223000       4.054771
                          9       1    1dy2              1.223000       2.341023
                          9       1    1dyz              1.223000       4.054771
                          9       1    1dz2              1.223000       2.341023

                         10       1    1fx3              2.680000      13.528752
                         10       1    1fx2y             2.680000      30.251209
                         10       1    1fx2z             2.680000      30.251209
                         10       1    1fxy2             2.680000      30.251209
                         10       1    1fxyz             2.680000      52.396631
                         10       1    1fxz2             2.680000      30.251209
                         10       1    1fy3              2.680000      13.528752
                         10       1    1fy2z             2.680000      30.251209
                         10       1    1fyz2             2.680000      30.251209
                         10       1    1fz3              2.680000      13.528752

     RI Auxiliary Basis Set                                                RI-5Z

       Number of orbital shell sets:                                          21
       Number of orbital shells:                                              21
       Number of primitive Cartesian functions:                               21
       Number of Cartesian basis functions:                                  126
       Number of spherical basis functions:                                   91
       Norm type:                                                              2

       Normalised Cartesian orbitals:

                        Set   Shell   Orbital            Exponent    Coefficient

                          1       1    1s               69.957700      17.239979

                          2       1    1s               15.569200       5.586114

                          3       1    1s                5.026940       2.392698

                          4       1    1s                1.997460       1.197481

                          5       1    1s                0.847999       0.629806

                          6       1    1s                0.373257       0.340342

                          7       1    1px              14.241400      39.434918
                          7       1    1py              14.241400      39.434918
                          7       1    1pz              14.241400      39.434918

                          8       1    1px               4.785100      10.087972
                          8       1    1py               4.785100      10.087972
                          8       1    1pz               4.785100      10.087972

                          9       1    1px               3.288140       6.311433
                          9       1    1py               3.288140       6.311433
                          9       1    1pz               3.288140       6.311433

                         10       1    1px               1.899330       3.178269
                         10       1    1py               1.899330       3.178269
                         10       1    1pz               1.899330       3.178269

                         11       1    1px               0.772218       1.031846
                         11       1    1py               0.772218       1.031846
                         11       1    1pz               0.772218       1.031846

                         12       1    1dx2             11.057200     110.354106
                         12       1    1dxy             11.057200     191.138918
                         12       1    1dxz             11.057200     191.138918
                         12       1    1dy2             11.057200     110.354106
                         12       1    1dyz             11.057200     191.138918
                         12       1    1dz2             11.057200     110.354106

                         13       1    1dx2              5.762230      35.273048
                         13       1    1dxy              5.762230      61.094711
                         13       1    1dxz              5.762230      61.094711
                         13       1    1dy2              5.762230      35.273048
                         13       1    1dyz              5.762230      61.094711
                         13       1    1dz2              5.762230      35.273048

                         14       1    1dx2              3.520060      14.889224
                         14       1    1dxy              3.520060      25.788893
                         14       1    1dxz              3.520060      25.788893
                         14       1    1dy2              3.520060      14.889224
                         14       1    1dyz              3.520060      25.788893
                         14       1    1dz2              3.520060      14.889224

                         15       1    1dx2              1.340090       2.747223
                         15       1    1dxy              1.340090       4.758330
                         15       1    1dxz              1.340090       4.758330
                         15       1    1dy2              1.340090       2.747223
                         15       1    1dyz              1.340090       4.758330
                         15       1    1dz2              1.340090       2.747223

                         16       1    1fx3              8.291460     171.741093
                         16       1    1fx2y             8.291460     384.024758
                         16       1    1fx2z             8.291460     384.024758
                         16       1    1fxy2             8.291460     384.024758
                         16       1    1fxyz             8.291460     665.150392
                         16       1    1fxz2             8.291460     384.024758
                         16       1    1fy3              8.291460     171.741093
                         16       1    1fy2z             8.291460     384.024758
                         16       1    1fyz2             8.291460     384.024758
                         16       1    1fz3              8.291460     171.741093

                         17       1    1fx3              5.450110      66.813820
                         17       1    1fx2y             5.450110     149.400243
                         17       1    1fx2z             5.450110     149.400243
                         17       1    1fxy2             5.450110     149.400243
                         17       1    1fxyz             5.450110     258.768812
                         17       1    1fxz2             5.450110     149.400243
                         17       1    1fy3              5.450110      66.813820
                         17       1    1fy2z             5.450110     149.400243
                         17       1    1fyz2             5.450110     149.400243
                         17       1    1fz3              5.450110      66.813820

                         18       1    1fx3              2.267140       9.284974
                         18       1    1fx2y             2.267140      20.761834
                         18       1    1fx2z             2.267140      20.761834
                         18       1    1fxy2             2.267140      20.761834
                         18       1    1fxyz             2.267140      35.960551
                         18       1    1fxz2             2.267140      20.761834
                         18       1    1fy3              2.267140       9.284974
                         18       1    1fy2z             2.267140      20.761834
                         18       1    1fyz2             2.267140      20.761834
                         18       1    1fz3              2.267140       9.284974

                         19       1    1gx4              8.220310     365.071528
                         19       1    1gx3y             8.220310     965.888474
                         19       1    1gx3z             8.220310     965.888474
                         19       1    1gx2y2            8.220310    1246.956658
                         19       1    1gx2yz            8.220310    2159.792286
                         19       1    1gx2z2            8.220310    1246.956658
                         19       1    1gxy3             8.220310     965.888474
                         19       1    1gxy2z            8.220310    2159.792286
                         19       1    1gxyz2            8.220310    2159.792286
                         19       1    1gxz3             8.220310     965.888474
                         19       1    1gy4              8.220310     365.071528
                         19       1    1gy3z             8.220310     965.888474
                         19       1    1gy2z2            8.220310    1246.956658
                         19       1    1gyz3             8.220310     965.888474
                         19       1    1gz4              8.220310     365.071528

                         20       1    1gx4              4.159820      56.090641
                         20       1    1gx3y             4.159820     148.401888
                         20       1    1gx3z             4.159820     148.401888
                         20       1    1gx2y2            4.159820     191.586014
                         20       1    1gx2yz            4.159820     331.836710
                         20       1    1gx2z2            4.159820     191.586014
                         20       1    1gxy3             4.159820     148.401888
                         20       1    1gxy2z            4.159820     331.836710
                         20       1    1gxyz2            4.159820     331.836710
                         20       1    1gxz3             4.159820     148.401888
                         20       1    1gy4              4.159820      56.090641
                         20       1    1gy3z             4.159820     148.401888
                         20       1    1gy2z2            4.159820     191.586014
                         20       1    1gyz3             4.159820     148.401888
                         20       1    1gz4              4.159820      56.090641

                         21       1    1hx5              5.848000     230.737456
                         21       1    1hx4y             5.848000     692.212367
                         21       1    1hx4z             5.848000     692.212367
                         21       1    1hx3y2            5.848000    1057.371856
                         21       1    1hx3yz            5.848000    1831.421777
                         21       1    1hx3z2            5.848000    1057.371856
                         21       1    1hx2y3            5.848000    1057.371856
                         21       1    1hx2y2z           5.848000    2364.355347
                         21       1    1hx2yz2           5.848000    2364.355347
                         21       1    1hx2z3            5.848000    1057.371856
                         21       1    1hxy4             5.848000     692.212367
                         21       1    1hxy3z            5.848000    1831.421777
                         21       1    1hxy2z2           5.848000    2364.355347
                         21       1    1hxyz3            5.848000    1831.421777
                         21       1    1hxz4             5.848000     692.212367
                         21       1    1hy5              5.848000     230.737456
                         21       1    1hy4z             5.848000     692.212367
                         21       1    1hy3z2            5.848000    1057.371856
                         21       1    1hy2z3            5.848000    1057.371856
                         21       1    1hyz4             5.848000     692.212367
                         21       1    1hz5              5.848000     230.737456

     The atoms of this atomic kind are PAW atoms (GAPW):
       Hard Gaussian function radius:                                      1.512
       Rho0 radius:                                                        1.512
       Maximum GTO radius used for PAW projector construction:            24.566

     GAPW Soft Basis Set                                          def2-QZVP_soft

       Number of orbital shell sets:                                          10
       Number of orbital shells:                                              10
       Number of primitive Cartesian functions:                                9
       Number of Cartesian basis functions:                                   35
       Number of spherical basis functions:                                   30
       Norm type:                                                              2

       Normalised Cartesian orbitals:

                        Set   Shell   Orbital            Exponent    Coefficient

                          1       1    1s                3.572557       1.379698

                          2       1    1s                1.242942       0.838973

                          3       1    1s                0.448077       0.390323

                          4       1    1s                0.164116       0.183769

                          5       1    1px        
                          5       1    1py        
                          5       1    1pz        

                          6       1    1px               1.745000       2.858804
                          6       1    1py               1.745000       2.858804
                          6       1    1pz               1.745000       2.858804

                          7       1    1px               0.560000       0.690518
                          7       1    1py               0.560000       0.690518
                          7       1    1pz               0.560000       0.690518

                          8       1    1dx2              4.299000      21.125281
                          8       1    1dxy              4.299000      36.590059
                          8       1    1dxz              4.299000      36.590059
                          8       1    1dy2              4.299000      21.125281
                          8       1    1dyz              4.299000      36.590059
                          8       1    1dz2              4.299000      21.125281

                          9       1    1dx2              1.223000       2.341023
                          9       1    1dxy              1.223000       4.054771
                          9       1    1dxz              1.223000       4.054771
                          9       1    1dy2              1.223000       2.341023
                          9       1    1dyz              1.223000       4.054771
                          9       1    1dz2              1.223000       2.341023

                         10       1    1fx3              2.680000      13.528752
                         10       1    1fx2y             2.680000      30.251209
                         10       1    1fx2z             2.680000      30.251209
                         10       1    1fxy2             2.680000      30.251209
                         10       1    1fxyz             2.680000      52.396631
                         10       1    1fxz2             2.680000      30.251209
                         10       1    1fy3              2.680000      13.528752
                         10       1    1fy2z             2.680000      30.251209
                         10       1    1fyz2             2.680000      30.251209
                         10       1    1fz3              2.680000      13.528752

     AE Potential information for                                            ALL

       Description:                                       All-electron potential
                                          Krack, Parrinello, PCCP 2, 2105 (2000)

       Gaussian exponent of the core charge distribution:              12.500000
       Electronic configuration (s p d ...):                           2   0   0


 MOLECULE KIND INFORMATION


 All atoms are their own molecule, skipping detailed information


 TOTAL NUMBERS AND MAXIMUM NUMBERS

  Total number of            - Atomic kinds:                                   1
                             - Atoms:                                          1
                             - Shell sets:                                    10
                             - Shells:                                        10
                             - Primitive Cartesian functions:                 14
                             - Cartesian basis functions:                     35
                             - Spherical basis functions:                     30

  Maximum angular momentum of the orbital basis functions:                     3


 MODULE QUICKSTEP:  ATOMIC COORDINATES IN angstrom

  Atom  Kind  Element       X           Y           Z          Z(eff)       Mass

       1     1 He   2    8.000000    8.000000    8.000000      2.00       4.0026




 SCF PARAMETERS         Density guess:                                   RESTART
                        --------------------------------------------------------
                        max_scf:                                             200
                        max_scf_history:                                       0
                        max_diis:                                              4
                        --------------------------------------------------------
                        eps_scf:                                        1.00E-06
                        eps_scf_history:                                0.00E+00
                        eps_diis:                                       1.00E-01
                        eps_eigval:                                     1.00E-05
                        --------------------------------------------------------
                        level_shift [a.u.]:                                 0.00
                        --------------------------------------------------------
                        Mixing method:                           DIRECT_P_MIXING
                        --------------------------------------------------------
                        No outer SCF

 PW_GRID| Information for grid number                                          1
 PW_GRID| Grid distributed over                                    40 processors
 PW_GRID| Real space group dimensions                                    40    1
 PW_GRID| the grid is blocked:                                                NO
 PW_GRID| Cutoff [a.u.]                                                    400.0
 PW_GRID| spherical cutoff:                                                   NO
 PW_GRID|   Bounds   1           -144     143                Points:         288
 PW_GRID|   Bounds   2           -144     143                Points:         288
 PW_GRID|   Bounds   3           -144     143                Points:         288
 PW_GRID| Volume element (a.u.^3)  0.1157E-02     Volume (a.u.^3)     27641.1785
 PW_GRID| Grid span                                                    FULLSPACE
 PW_GRID|   Distribution                         Average         Max         Min
 PW_GRID|   G-Vectors                           597196.8      597312      597024
 PW_GRID|   G-Rays                                2073.6        2074        2073
 PW_GRID|   Real Space Points                   597196.8      663552      580608

 PW_GRID| Information for grid number                                          2
 PW_GRID| Grid distributed over                                    40 processors
 PW_GRID| Real space group dimensions                                    40    1
 PW_GRID| the grid is blocked:                                                NO
 PW_GRID| Cutoff [a.u.]                                                    200.0
 PW_GRID| spherical cutoff:                                                   NO
 PW_GRID|   Bounds   1           -100      99                Points:         200
 PW_GRID|   Bounds   2           -100      99                Points:         200
 PW_GRID|   Bounds   3           -100      99                Points:         200
 PW_GRID| Volume element (a.u.^3)  0.3455E-02     Volume (a.u.^3)     27641.1785
 PW_GRID| Grid span                                                    FULLSPACE
 PW_GRID|   Distribution                         Average         Max         Min
 PW_GRID|   G-Vectors                           200000.0      200600      199600
 PW_GRID|   G-Rays                                1000.0        1003         998
 PW_GRID|   Real Space Points                   200000.0      200000      200000

 PW_GRID| Information for grid number                                          3
 PW_GRID| Grid distributed over                                    40 processors
 PW_GRID| Real space group dimensions                                    40    1
 PW_GRID| the grid is blocked:                                                NO
 PW_GRID| Cutoff [a.u.]                                                     66.7
 PW_GRID| spherical cutoff:                                                   NO
 PW_GRID|   Bounds   1            -60      59                Points:         120
 PW_GRID|   Bounds   2            -60      59                Points:         120
 PW_GRID|   Bounds   3            -60      59                Points:         120
 PW_GRID| Volume element (a.u.^3)  0.1600E-01     Volume (a.u.^3)     27641.1785
 PW_GRID| Grid span                                                    FULLSPACE
 PW_GRID|   Distribution                         Average         Max         Min
 PW_GRID|   G-Vectors                            43200.0       43560       42960
 PW_GRID|   G-Rays                                 360.0         363         358
 PW_GRID|   Real Space Points                    43200.0       43200       43200

 PW_GRID| Information for grid number                                          4
 PW_GRID| Grid distributed over                                    40 processors
 PW_GRID| Real space group dimensions                                    40    1
 PW_GRID| the grid is blocked:                                                NO
 PW_GRID| Cutoff [a.u.]                                                     22.2
 PW_GRID| spherical cutoff:                                                   NO
 PW_GRID|   Bounds   1            -36      35                Points:          72
 PW_GRID|   Bounds   2            -36      35                Points:          72
 PW_GRID|   Bounds   3            -36      35                Points:          72
 PW_GRID| Volume element (a.u.^3)  0.7406E-01     Volume (a.u.^3)     27641.1785
 PW_GRID| Grid span                                                    FULLSPACE
 PW_GRID|   Distribution                         Average         Max         Min
 PW_GRID|   G-Vectors                             9331.2        9432        9288
 PW_GRID|   G-Rays                                 129.6         131         129
 PW_GRID|   Real Space Points                     9331.2       10368        5184

 PW_GRID| Information for grid number                                          5
 PW_GRID| Grid distributed over                                    40 processors
 PW_GRID| Real space group dimensions                                    40    1
 PW_GRID| the grid is blocked:                                                NO
 PW_GRID| Cutoff [a.u.]                                                      7.4
 PW_GRID| spherical cutoff:                                                   NO
 PW_GRID|   Bounds   1            -20      19                Points:          40
 PW_GRID|   Bounds   2            -20      19                Points:          40
 PW_GRID|   Bounds   3            -20      19                Points:          40
 PW_GRID| Volume element (a.u.^3)  0.4319         Volume (a.u.^3)     27641.1785
 PW_GRID| Grid span                                                    FULLSPACE
 PW_GRID|   Distribution                         Average         Max         Min
 PW_GRID|   G-Vectors                             1600.0        1720        1520
 PW_GRID|   G-Rays                                  40.0          43          38
 PW_GRID|   Real Space Points                     1600.0        1600        1600

 POISSON| Solver                                          Martyna-Tuckerman (MT)
 POISSON| MT| Alpha                                                        7.000
 POISSON| MT| Relative cutoff                                                2.0
 POISSON| Periodicity                                                       NONE

 RS_GRID| Information for grid number                                          2
 RS_GRID|   Bounds   1           -100      99                Points:         200
 RS_GRID|   Bounds   2           -100      99                Points:         200
 RS_GRID|   Bounds   3           -100      99                Points:         200
 RS_GRID| Real space distribution over                                  2 groups
 RS_GRID| Real space distribution along direction                              1
 RS_GRID| Border size                                                         23
 RS_GRID| Real space distribution over                                  4 groups
 RS_GRID| Real space distribution along direction                              2
 RS_GRID| Border size                                                         23
 RS_GRID| Real space distribution over                                  5 groups
 RS_GRID| Real space distribution along direction                              3
 RS_GRID| Border size                                                         23
 RS_GRID|   Distribution                         Average         Max         Min
 RS_GRID|   Planes                                 146.0         146         146
 RS_GRID|   Distribution                         Average         Max         Min
 RS_GRID|   Planes                                  96.0          96          96
 RS_GRID|   Distribution                         Average         Max         Min
 RS_GRID|   Planes                                  86.0          86          86

 RS_GRID| Information for grid number                                          3
 RS_GRID|   Bounds   1            -60      59                Points:         120
 RS_GRID|   Bounds   2            -60      59                Points:         120
 RS_GRID|   Bounds   3            -60      59                Points:         120
 RS_GRID| Real space distribution over                                  2 groups
 RS_GRID| Real space distribution along direction                              1
 RS_GRID| Border size                                                         23
 RS_GRID| Real space distribution over                                  4 groups
 RS_GRID| Real space distribution along direction                              2
 RS_GRID| Border size                                                         23
 RS_GRID| Real space distribution over                                  5 groups
 RS_GRID| Real space distribution along direction                              3
 RS_GRID| Border size                                                         23
 RS_GRID|   Distribution                         Average         Max         Min
 RS_GRID|   Planes                                 106.0         106         106
 RS_GRID|   Distribution                         Average         Max         Min
 RS_GRID|   Planes                                  76.0          76          76
 RS_GRID|   Distribution                         Average         Max         Min
 RS_GRID|   Planes                                  70.0          70          70

 RS_GRID| Information for grid number                                          4
 RS_GRID|   Bounds   1            -36      35                Points:          72
 RS_GRID|   Bounds   2            -36      35                Points:          72
 RS_GRID|   Bounds   3            -36      35                Points:          72
 RS_GRID| Real space fully replicated
 RS_GRID| Group size                                                           1

 RS_GRID| Information for grid number                                          5
 RS_GRID|   Bounds   1            -20      19                Points:          40
 RS_GRID|   Bounds   2            -20      19                Points:          40
 RS_GRID|   Bounds   3            -20      19                Points:          40
 RS_GRID| Real space fully replicated
 RS_GRID| Group size                                                           1
 
 RI-RPA| using GPW style
 

  HFX_INFO| Replica ID:                                                        1
  HFX_INFO| EPS_SCHWARZ:                                                 2.0E-17
  HFX_INFO| EPS_SCHWARZ_FORCES                                           1.0E-06
  HFX_INFO| EPS_STORAGE_SCALING:                                         1.0E+00
  HFX_INFO| NBINS:                                                            64
  HFX_INFO| BLOCK_SIZE:                                                        1
  HFX_INFO| FRACTION:                                               1.0000000000
  HFX_INFO| Interaction Potential:                                       COULOMB
  HFX_INFO| Number of periodic shells considered:                           NONE
  HFX_INFO| Number of periodic cells considered:                            NONE


 Number of electrons:                                                          2
 Number of occupied orbitals:                                                  1
 Number of molecular orbitals:                                                 1

 Number of orbital functions:                                                 30
 Number of independent orbital functions:                                     30

 Extrapolation method: initial_guess


 SCF WAVEFUNCTION OPTIMIZATION

  Step     Update method      Time    Convergence         Total energy    Change
  ------------------------------------------------------------------------------
     1 P_Mix/Diag. 0.40E+00    1.4     1.6116E-10        -2.8928232581 -2.89E+00

  *** SCF run converged in     1 steps ***


  Electronic density on regular grids:         -1.8860157198        0.1139842802
  Core density on regular grids:                2.0000000000       -0.0000000000
  Hard and soft densities (Lebedev):           -1.9999999999       -1.8860157199
  Total Rho_soft + Rho1_hard - Rho1_soft       -1.9999999998
  Total charge density (r-space):               0.0000000002
  Total Rho_soft + Rho0_soft (g-space):        -0.0000000171

  Overlap energy of the core charge distribution:               0.00000000000000
  Self energy of the core charge distribution:                 -5.64189583547756
  Core Hamiltonian energy:                                      1.97490241695899
  Hartree energy:                                               0.75967475993929
  Exchange-correlation energy:                                 -0.91430647952785

  GAPW| Exc from hard and soft atomic rho1:                    -0.13227122807212
  GAPW| local Eh = 1 center integrals:                          1.06107310810867

  Total energy:                                                -2.89282325807058

 !-----------------------------------------------------------------------------!
                     Mulliken Population Analysis

 #  Atom  Element  Kind  Atomic population                           Net charge
       1     He       1          2.000000                             -0.000000
 # Total charge                              2.000000                 -0.000000

 !-----------------------------------------------------------------------------!

 !-----------------------------------------------------------------------------!
                           Hirshfeld Charges

  #Atom  Element  Kind  Ref Charge     Population                    Net charge
      1       He     1       2.000          2.000                         0.000

  Total Charge                                                            0.000
 !-----------------------------------------------------------------------------!


 RI-RPA section
 --------------

  Used number of processes per group:                                          1
  Maximum allowed memory usage per MPI processes:                     200.00 MiB

  HFX_MEM_INFO| Est. max. program size before HFX [MiB]:                     268
  HFX_MEM_INFO| Number of cart. primitive ERI's calculated:              2313441
  HFX_MEM_INFO| Number of sph. ERI's calculated:                          810000
  HFX_MEM_INFO| Number of sph. ERI's stored in-core:                      810000
  HFX_MEM_INFO| Number of sph. ERI's stored on disk:                           0
  HFX_MEM_INFO| Number of sph. ERI's calculated on the fly:                    0
  HFX_MEM_INFO| Total memory consumption ERI's RAM [MiB]:                      5
  HFX_MEM_INFO| Whereof max-vals [MiB]:                                        1
  HFX_MEM_INFO| Total compression factor ERI's RAM:                         1.28
  HFX_MEM_INFO| Total memory consumption ERI's disk [MiB]:                     0
  HFX_MEM_INFO| Total compression factor ERI's disk:                        0.00
  HFX_MEM_INFO| Size of density/Fock matrix [MiB]:                             0
  HFX_MEM_INFO| Size of buffers [MiB]:                                         0
  HFX_MEM_INFO| Est. max. program size after HFX  [MiB]:                     269

  GPW_INFO| Density cutoff [a.u.]:                                         150.0
  GPW_INFO| Relative density cutoff [a.u.]:                                 25.0
  RI_INFO| Cholesky decomposition group size:                                 40
  RI_INFO| Number of groups for auxiliary basis functions                     40
  RI_INFO| Occupied  basis set size:                                           1
  RI_INFO| Virtual   basis set size:                                          29
  RI_INFO| Auxiliary basis set size:                                          91
  RI_INFO| Total memory for (ia|K) integrals:                           0.02 MiB
  RI_INFO| Group size for frequency integration:                              40
  INTEG_INFO| MINIMAX quadrature
  INTEG_INFO| Number of integration points:                                   14
  INTEG_INFO| Number of integration points per RPA group:                     14
  MATRIX_INFO| Number row processes:                                           5
  MATRIX_INFO| Number column processes:                                        8
  MATRIX_INFO| Row block size:                                                 2
  MATRIX_INFO| Column block size:                                              5
 Emin =  0.85343652163774986      Emax =   17.541803164084200      Range =   20.554315077144079     
  INTEG_INFO| Range for the minimax approximation:                       20.5543
  INTEG_INFO| Minimax parameters:                    Weights           Abscissas
                                                1.1677977523        0.1449033348
                                                1.2727699812        0.4477108550
                                                1.4945108552        0.7909832787
                                                1.8579212002        1.2067275371
                                                2.4043179312        1.7351303770
                                                3.1981701658        2.4294109102
                                                4.3403237842        3.3630732138
                                                5.9955608993        4.6420029030
                                                8.4564910069        6.4272612070
                                               12.3113932907        8.9844950452
                                               18.9548466794       12.8093280302
                                               32.4935021793       19.0121772716
                                               69.7560485750       30.8804306991
                                              268.0324286080       64.8653783751
  INTEG_INFO| Range for the minimax approximation:                       20.5543
  INTEG_INFO| Gap:                                                        0.8534
  INTEG_INFO| Minimax parameters of the time grid:   Weights           Abscissas
                                                0.0179741569        0.0069862807
                                                0.0427586063        0.0372111356
                                                0.0699342299        0.0932933124
                                                0.1012820528        0.1784625530
                                                0.1393093446        0.2980722773
                                                0.1875732279        0.4604776384
                                                0.2510539693        0.6782708597
                                                0.3365726329        0.9699044186
                                                0.4534892136        1.3618387299
                                                0.6153113068        1.8917682048
                                                0.8436935492        2.6144600766
                                                1.1795118737        3.6144432673
                                                1.7221252797        5.0403623681
                                                2.8623730964        7.2415385842
 
 tau scaled:   8.1860578006344598E-003   4.3601527083159043E-002  0.10931488167199942       0.20911051787724341       0.34926121598943993       0.53955698716440492       0.79475255924273580        1.1364693143993376        1.5957118021294612        2.2166478195626298        3.0634499582383090        4.2351635717682816        5.9059604790193339        8.4851519715500281     
 
 
 omega scaled:  0.12366579802265598       0.38209279475249003       0.67505401802607456        1.0298653518462670        1.4808236335535978        2.0733479968169890        2.8701695055610807        3.9616548109345917        5.4852594481459125        7.6676962000572990        10.931948358612910        16.225686439420638        26.354487362533156        55.358482895155177     
 
 
 weights_cos_tf_t_to_w
   4.2159916460876821E-002   4.2013251272248600E-002   4.2286595531941952E-002   4.1918188330183521E-002   4.2349113848600108E-002   4.1881912078248956E-002   4.2367649834569102E-002   4.1874095202935682E-002   4.2369119698536829E-002   4.1873094395363145E-002   4.2389678173455562E-002   4.1769111369803907E-002   4.2811836085483009E-002   3.9239337845752745E-002  0.10006599752944192       0.10059522081418126        9.9608318573934415E-002  0.10093994325965470        9.9379265956676691E-002  0.10107708404897119        9.9301389571377005E-002  0.10112512684881872        9.9258473938237099E-002  0.10120636116983091        9.8991760023762601E-002  0.10228815123270171        9.0685032355055095E-002   6.4871824903156350E-002  0.16417336651571995       0.16307510604193129       0.16512696653761233       0.16234811176244318       0.16562694832211303       0.16201672997065472       0.16587631665651972       0.16174514953056010       0.16633517714750942       0.16060059107529892       0.17148224908522192       0.18903686240880424       0.14521970157594136        1.7617292624159616E-002  0.23686102381559418       0.23875472988982002       0.23519978955088452       0.24006135424068231       0.23421995283673258       0.24087278071534096       0.23328218820091573       0.24258594700415867       0.22799879649985838        9.6715341835151722E-002  0.24791090762548201       0.21987827460711507       0.12015884613663763       -1.0008294175862072E-002  0.32724084793533781       0.32423566213322308       0.32993841806838775       0.32196228096715607       0.33197371372932960       0.31952950025786553       0.33683701077097283       0.29356980444166414       0.30526525764889451       0.33750340248906663       0.30190856253156112       0.24778709176407568        3.4562240942862858E-002   2.4938377916648509E-003  0.43840120896847867       0.44298983493050825       0.43408176789721303       0.44717100808925780       0.42892908013971848       0.45840843007544613        2.6253986358822132E-002  0.41958766864709351       0.45400520349190066       0.39505101862148490       0.37136418911393387       0.12498393344159880      -0.15531844354361782       -4.6461657673973603E-002  0.59006820920118197       0.58314650139709945       0.59723129888088100       0.57408513614721290       0.61810617949374491       0.75877084865324618       0.56455343098206578       0.60856308690489758       0.49481832940288178       0.51430077545527830       0.26865277018964606        4.0998884146336713E-002   1.1418999264485434E-002   6.5735039667897332E-004  0.78620192549785417       0.79676794899355308       0.77297413656975988       0.82657724894044693       0.94858717784135649       0.75801869005551392       0.81737635124538621       0.57741109316275807       0.69740840541886306       0.44278101722499658        8.4487313962403957E-002  -1.7976560619792151E-002   2.9364184926467151E-002  -4.3648184195488430E-004   1.0665094789765350        1.0496044859802942        1.0988096654694683        1.3786570189069984        1.0214991558630755        1.1025646102704245       0.60448630980727447       0.94267343849142271       0.65459390252121308       0.15692474813723886      -0.21343593238742617        1.1680032935560336E-002   5.6373276446078013E-003   3.3613039298543366E-004   1.4361942756961612        1.4666649844838044        1.0826640703897774        1.3841811470338539        1.4955973588524407       0.72617524415617485        1.2789258571986548       0.92414413309778953       0.25570635743928966       0.22479023625982378        2.8385693821322566E-002   3.2548616456012015E-002  -4.7634320125226467E-003   2.4503432410470579E-004   1.9866062074114690        1.9094410209153805        1.8823108480175554        2.0471242984959712        1.3213550035433110        1.7499736407793161        1.2748863529581806       0.37915942816770010       0.21747469344422737      -0.43091244128278122        2.2393438221046388E-002   4.3777791791902929E-003  -1.8536889353412246E-003   1.9520152402702857E-004   2.7463510207671433        1.7489941300257077        2.8576519657031736        2.2942662480443032        2.4320965399966372        1.7267246974602593       0.51902752696180765       0.30352157789212436      -0.15208592275516400       -3.8867912402884730E-002  -1.1309604364419143E-002  -3.1321341911635593E-003   1.0013275368589120E-002   4.1926612092671846E-004   4.0815002969747285        4.2154040517731470        3.6667627270982677        3.4783528674935220        2.2560578557295048       0.64383526284758241       0.61493866722328705      -0.44204056341305920       -5.4753378428337135E-002   5.1836697340222004E-002   3.7803227082661692E-002 -0.24903677658732642       -5.5185443178076294E-003   1.4835547734726680E-004   6.4380144526266134        6.2072010113876077        5.2022756109607293        2.5316549774650530       0.69169734018020390      -0.79274293009197438       0.13936491807875642        7.8059851082767764E-002  -2.7180092165715871E-002   1.8405245118706077E-002   6.4176615469877407E-002  -2.5559728921921280E-003  -8.4100667137307372E-004  -2.3712377414762116E-003
 
 weights_cos_tf_w_to_t
   7.9316209208776037E-002   7.9300009749978945E-002   7.9325593054595592E-002   7.9287368601795014E-002   7.9343682916630881E-002   7.9261663279996744E-002   7.9379185596791926E-002   7.9214372281255954E-002   7.9440682040013838E-002   7.9132635471477919E-002   7.9560824150648315E-002   7.8917551725871921E-002   8.0096661739178107E-002   7.6245331743952538E-002   8.6419932277501818E-002   8.6472096192845196E-002   8.6389653287590421E-002   8.6513095974087351E-002   8.6330325547261430E-002   8.6599309973257224E-002   8.6205868067994268E-002   8.6780185993961118E-002   8.5926781610160471E-002   8.7297000210612638E-002   8.4413685411298331E-002   6.1290422859865731E-002   8.9881633231390479E-002   8.0180200927269726E-002  0.10153569145613590       0.10143603336566727       0.10159381240770946       0.10135639237110043       0.10171206473048208       0.10117534462280929       0.10200200524555569       0.10065578582508487       0.10326765765329668        8.5849183762597883E-002   9.7952532343325502E-002  0.10436958537131852        9.2886637458994656E-002   7.9105818566669650E-002  0.12611653918270962       0.12628612564451427       0.12601675721861727       0.12642595273488813       0.12579874011003778       0.12679492361822350       0.12507104979300968       0.12895527142068752       0.14740706709746365       0.12274549498581903       0.12971561832176937       0.10703278113849914       0.10941249968346345        4.8244227038266509E-002  0.16339116682389720       0.16311167153720899       0.16355824038651157       0.16286791908710432       0.16397357121966474       0.16201768999958149       0.16669517373753187       0.18050470383990760       0.15924081490509664       0.16789496756852373       0.11633770817319267       0.14474167222970197        9.2398865410327380E-002   1.7482812647544130E-002  0.21703110119935576       0.21749232667290122       0.21674751826611746       0.21793692469035972       0.21585578619379275       0.22069838536679540       0.24746331593465648       0.21209984314610930       0.22315046895752874       0.12578056552101766       0.19388881073467851       0.13740711798067892        3.5825096883476515E-002  -2.8329935634402285E-002  0.29505662577270980       0.29427795598497963       0.29556021938739668       0.29337895289532800       0.29805946141983769       0.16974513200893870       0.28794260650318071       0.30233536949489187       0.18887246547025527       0.26389159605708379       0.19264671252570104        5.7234727016698607E-002   4.9214968232246394E-002   7.5473132384771087E-003  0.40668303988236210       0.40805711639505066       0.40570865951209145       0.41027683686176220       0.38924698436565974       0.39690047100776571       0.41686339619581936       0.31735118733014511       0.36476302842934566       0.26481406794794993        8.0936565842421079E-002   4.9146471827626312E-002  -5.4886152325594455E-002   6.8162464762232021E-003  0.57525329885123200       0.57264666000431130       0.57744762137533978       0.56413653040507061       0.55334810883771068       0.58741260239369986       0.49899848075381303       0.51291905487990286       0.35950344080074415       0.10602128226198466        7.0132593284733188E-002  -3.9543541086415383E-002  -1.1417729835804044E-002  -4.0601000679264861E-003  0.83418687627649868       0.83973652488889361       0.82764747180123355       0.53513796227039223       0.85672918545080634       0.76436843519496966       0.73787673447728430       0.47769878070450311       0.12930936091234371       0.14710360918309157      -0.23525079208888486       -1.8019489531685393E-002   1.9719079476189737E-002   5.0501785517423044E-003   1.2919692041700219        1.2776604531754086        1.3291749839125391        1.3331795030158795        1.2008719840020685        1.0965826877490152       0.59884461026714308       0.14548692161990742      -0.29841536876077146        3.4208818307088301E-002   2.3892060580115299E-002  -1.0520680320096107E-002   2.9100197277555230E-002   3.5695412718900844E-002   2.1922239597023756        2.2449865617032074        2.5092479007378894        2.0529812787069099        1.6861555091067622       0.63957801940702297       0.16362742084073015       -5.9674075351635311E-002   3.4605238149158841E-002   8.8811580411904165E-002   1.0883392760144451E-002  -6.8490569089938048E-003 -0.45129508354178044       -3.3441389827615496E-003   4.8108026657476977        4.3026491610420026        4.2058435006221089        2.4109041998770708       0.51168739543727593       -1.7992948619549709       0.11230051946979519       0.26577220586521788        4.8755795457238994E-002  -3.9051689078723487E-002  -1.3955738359776390E-002   6.6330493892169759E-002  -3.0244211728576501E-002  -3.3213217954431466E-003   16.962285064578367        11.793411608891699        1.9650383343962914      -0.78462841557219076       0.15072773368412601       -2.3772988809872966        3.1085308493677015E-002  -2.0099573899056016E-002   1.5147401001942958E-002   1.0524280336195823E-002   7.6896612454058384E-003   1.4493602350048946E-002   4.2326545232680788E-003  -4.8656586445086393E-002
[...]
  RPA_IM_TIME_INFO| Number of periodic images T for Chi_PQ^T(it):              1
  RPA_IM_TIME_INFO| Number of periodic images T for Chi_PQ^T(it):              1
  RPA_IM_TIME_INFO| Number of periodic images T for Chi_PQ^T(it):              1
  RPA_IM_TIME_INFO| Number of periodic images T for Chi_PQ^T(it):              1
  RPA_IM_TIME_INFO| Number of periodic images T for Chi_PQ^T(it):              1
  RPA_IM_TIME_INFO| Number of periodic images T for Chi_PQ^T(it):              1
  RPA_IM_TIME_INFO| Number of periodic images T for Chi_PQ^T(it):              1
  RPA_IM_TIME_INFO| Number of periodic images T for Chi_PQ^T(it):              1
  RPA_IM_TIME_INFO| Number of periodic images T for Chi_PQ^T(it):              1
  RPA_IM_TIME_INFO| Number of periodic images T for Chi_PQ^T(it):              1
  RPA_IM_TIME_INFO| Number of periodic images T for Chi_PQ^T(it):              1
  RPA_IM_TIME_INFO| Number of periodic images T for Chi_PQ^T(it):              1
  RPA_IM_TIME_INFO| Number of periodic images T for Chi_PQ^T(it):              1
  RPA_IM_TIME_INFO| Number of periodic images T for Chi_PQ^T(it):              1
  
  GW quasiparticle energies
  -------------------------
   
  The GW quasiparticle energies are calculated according to: 
  E_GW = E_SCF + Z * ( Sigc(E_SCF) + Sigx - vxc )
   
  The energy unit of the following table is eV.  Sigc_fit is a very conservative
  estimate of the statistical error of the fitting.
   
            MO      E_SCF       Sigc   Sigc_fit   Sigx-vxc          Z       E_GW
     1 ( occ )    -15.748      1.656      0.000     -9.371      1.000    -23.464
     2 ( vir )      7.475     -0.245      0.000      3.791      1.000     11.021
     3 ( vir )     22.727     -0.960      0.000      6.805      1.000     28.571
     4 ( vir )     22.727     -0.960      0.000      6.805      1.000     28.571
     5 ( vir )     22.727     -0.960      0.000      6.805      1.000     28.571
     6 ( vir )     51.490     -3.509      0.000      8.899      1.000     56.880
     7 ( vir )     95.111      0.081      0.000     10.468      1.000    105.660
     8 ( vir )     95.111      0.081      0.000     10.468      1.000    105.660
     9 ( vir )     95.111      0.081      0.000     10.468      1.000    105.660
    10 ( vir )     95.111      0.081      0.000     10.468      1.000    105.660
    11 ( vir )     95.111      0.081      0.000     10.468      1.000    105.660
   
  GW HOMO-LUMO gap (eV)                                                    34.49
  

  Total RI-RPA Time=                                                    2.065567
  RI-RPA energy  =                                             -0.08051453514355

  Total EXX Time=                                                       1.576221
  EXX energy  =                                                -1.01391859226158

 ENERGY| Total FORCE_EVAL ( QS ) energy (a.u.):               -2.940678677454848


 -------------------------------------------------------------------------------
 -                                                                             -
 -                                DBCSR STATISTICS                             -
 -                                                                             -
 -------------------------------------------------------------------------------
 COUNTER                                    TOTAL       BLAS       SMM       ACC
 flops    30 x     1 x    30                 1800     100.0%      0.0%      0.0%
 flops    30 x    30 x    30               108000     100.0%      0.0%      0.0%
 flops    91 x    91 x    91             21099988     100.0%      0.0%      0.0%
 flops    91 x    91 x    18             41736240     100.0%      0.0%      0.0%
 flops    91 x    30 x    30             50450400     100.0%      0.0%      0.0%
 flops    30 x    90 x    30             51678000     100.0%      0.0%      0.0%
 flops    91 x    30 x    91             76516440     100.0%      0.0%      0.0%
 flops    30 x    60 x    30             90828000     100.0%      0.0%      0.0%
 flops    91 x    91 x    24            166944960     100.0%      0.0%      0.0%
 flops inhomo. stacks                        3600     100.0%      0.0%      0.0%
 flops total                       499.367428E+06     100.0%      0.0%      0.0%
 flops max/rank                    156.877060E+06     100.0%      0.0%      0.0%
 matmuls inhomo. stacks                         2     100.0%      0.0%      0.0%
 matmuls total                               2201     100.0%      0.0%      0.0%
 number of processed stacks                  2201     100.0%      0.0%      0.0%
 average stack size                                     1.0       0.0       0.0
 marketing flops                   499.302208E+06
 -------------------------------------------------------------------------------
 # multiplications                            524
 max memory usage/rank             306.421760E+06
 # max total images/rank                        5
 # max 3D layers                                1
 # MPI messages exchanged                  634920
 MPI messages size (bytes):
  total size                       180.476832E+06
  min size                           0.000000E+00
  max size                          66.248000E+03
  average size                     284.251282E+00
 MPI breakdown and total messages size (bytes):
             size <=      128              629148                        0
       128 < size <=     8192                 984                  6896880
      8192 < size <=    32768                3234                 70630560
     32768 < size <=   131072                1554                102949392
    131072 < size <=  4194304                   0                        0
   4194304 < size <= 16777216                   0                        0
  16777216 < size                               0                        0
 -------------------------------------------------------------------------------

 *** WARNING in dbcsr_mm.F:278 :: Using a non-square number of MPI ranks ***
 *** might lead to poor performance. Used ranks: 40 Suggested: 36 81     ***

 -------------------------------------------------------------------------------
 -                                                                             -
 -                      DBCSR MESSAGE PASSING PERFORMANCE                      -
 -                                                                             -
 -------------------------------------------------------------------------------

 ROUTINE             CALLS      AVE VOLUME [Bytes]
 MP_Group               26
 MP_Bcast               10                     12.
 MP_Allreduce         2950                      8.
 MP_Alltoall          1840                   6813.
 MP_Wait             35664
 MP_ISend            33842                    779.
 MP_IRecv            33842                     58.
 MP_Memory           54304
 -------------------------------------------------------------------------------


 MEMORY| Estimated peak process memory [MiB]                                 293

 -------------------------------------------------------------------------------
 ----                             MULTIGRID INFO                            ----
 -------------------------------------------------------------------------------
 count for grid        1:          30010          cutoff [a.u.]          200.00
 count for grid        2:           5306          cutoff [a.u.]           66.67
 count for grid        3:           1605          cutoff [a.u.]           22.22
 count for grid        4:            160          cutoff [a.u.]            7.41
 total gridlevel count  :          37081

 -------------------------------------------------------------------------------
 -                                                                             -
 -                         MESSAGE PASSING PERFORMANCE                         -
 -                                                                             -
 -------------------------------------------------------------------------------

 ROUTINE             CALLS      AVE VOLUME [Bytes]
 MP_Group                5
 MP_Bcast              112                2649451.
 MP_Allreduce          342                   6502.
 MP_Sync                72
 MP_Alltoall           123                2298147.
 MP_ISendRecv          468                  33285.
 MP_Wait              1106
 MP_comm_split          10
 MP_ISend             4976                  24977.
 MP_IRecv             3886                  39413.
 -------------------------------------------------------------------------------


 -------------------------------------------------------------------------------
 -                                                                             -
 -                           R E F E R E N C E S                               -
 -                                                                             -
 -------------------------------------------------------------------------------
 
 CP2K version 7.0 (Development Version), the CP2K developers group (2018).
 CP2K is freely available from https://www.cp2k.org/ .

 Schuett, Ole; Messmer, Peter; Hutter, Juerg; VandeVondele, Joost. 
 Electronic Structure Calculations on Graphics Processing Units, John Wiley & Sons, Ltd, 173-190 (2016). 
 GPU-Accelerated Sparse Matrix-Matrix Multiplication for Linear Scaling Density Functional Theory.
 https://dx.doi.org/10.1002/9781118670712.ch8


 Del Ben, M; Schuett, O; Wentz, T; Messmer, P; Hutter, J;
 VandeVondele, J. 
 COMPUTER PHYSICS COMMUNICATIONS, 187, 120-129 (2015). 
 Enabling simulation at the fifth rung of DFT: Large scale RPA
 calculations with excellent time to solution.
 https://dx.doi.org/10.1016/j.cpc.2014.10.021


 Borstnik, U; VandeVondele, J; Weber, V; Hutter, J. 
 PARALLEL COMPUTING, 40 (5-6), 47-58 (2014). 
 Sparse matrix multiplication: The distributed block-compressed sparse
 row library.
 https://dx.doi.org/10.1016/j.parco.2014.03.012


 Hutter, J; Iannuzzi, M; Schiffmann, F; VandeVondele, J. 
 WILEY INTERDISCIPLINARY REVIEWS-COMPUTATIONAL MOLECULAR SCIENCE, 4 (1), 15-25 (2014). 
 CP2K: atomistic simulations of condensed matter systems.
 https://dx.doi.org/10.1002/wcms.1159


 Del Ben, M; Hutter, J; VandeVondele, J. 
 JOURNAL OF CHEMICAL THEORY AND COMPUTATION, 9 (6), 2654-2671 (2013). 
 Electron Correlation in the Condensed Phase from a Resolution of
 Identity Approach Based on the Gaussian and Plane Waves Scheme.
 https://dx.doi.org/10.1021/ct4002202


 Del Ben, M; Hutter, J; VandeVondele, J. 
 JOURNAL OF CHEMICAL THEORY AND COMPUTATION, 8 (11), 4177-4188 (2012). 
 Second-Order Moller-Plesset Perturbation Theory in the Condensed Phase:
 An Efficient and Massively Parallel Gaussian and Plane Waves Approach.
 https://dx.doi.org/10.1021/ct300531w


 Guidon, M; Hutter, J; VandeVondele, J. 
 JOURNAL OF CHEMICAL THEORY AND COMPUTATION, 5 (11), 3010-3021 (2009). 
 Robust Periodic Hartree-Fock Exchange for Large-Scale Simulations Using
 Gaussian Basis Sets.
 https://dx.doi.org/10.1021/ct900494g


 Guidon, M; Schiffmann, F; Hutter, J; VandeVondele, J. 
 JOURNAL OF CHEMICAL PHYSICS, 128 (21), 214104 (2008). 
 Ab initio molecular dynamics using hybrid density functionals.
 https://dx.doi.org/10.1063/1.2931945


 Frigo, M; Johnson, SG. 
 PROCEEDINGS OF THE IEEE, 93 (2), 216-231 (2005). 
 The design and implementation of FFTW3.
 https://dx.doi.org/10.1109/JPROC.2004.840301


 Lippert, G; Hutter, J; Parrinello, M. 
 THEORETICAL CHEMISTRY ACCOUNTS, 103 (2), 124-140 (1999). 
 The Gaussian and augmented-plane-wave density functional method for ab
 initio molecular dynamics simulations.
 https://dx.doi.org/10.1007/s002140050523


 Krack, M; Parrinello, M. 
 PHYSICAL CHEMISTRY CHEMICAL PHYSICS, 2 (10), 2105-2112 (2000). 
 All-electron ab-initio molecular dynamics.
 https://dx.doi.org/10.1039/b001167n


 Martyna, GJ; Tuckerman, ME. 
 JOURNAL OF CHEMICAL PHYSICS, 110 (6), 2810-2821 (1999). 
 A reciprocal space based method for treating long range interactions in
 ab initio and force-field-based calculations in clusters.
 https://dx.doi.org/10.1063/1.477923


 Perdew, JP; Burke, K; Ernzerhof, M. 
 PHYSICAL REVIEW LETTERS, 77 (18), 3865-3868 (1996). 
 Generalized gradient approximation made simple.
 https://dx.doi.org/10.1103/PhysRevLett.77.3865


 -------------------------------------------------------------------------------
 -                                                                             -
 -                                T I M I N G                                  -
 -                                                                             -
 -------------------------------------------------------------------------------
 SUBROUTINE                       CALLS  ASD         SELF TIME        TOTAL TIME
                                MAXIMUM       AVERAGE  MAXIMUM  AVERAGE  MAXIMUM
 CP2K                                 1  1.0    0.025    0.030    6.548    6.549
 qs_energies                          1  2.0    0.000    0.000    5.920    5.921
 mp2_main                             1  3.0    0.000    0.000    3.651    3.654
 mp2_gpw_main                         1  4.0    0.000    0.001    2.065    2.066
 rpa_ri_compute_en                    1  5.0    0.000    0.000    2.045    2.045
 rpa_num_int                          1  6.0    0.001    0.002    2.043    2.044
 qs_ks_build_kohn_sham_matrix         2  6.0    0.001    0.001    1.976    1.976
 scf_env_do_scf                       1  3.0    0.000    0.000    1.670    1.670
 scf_env_do_scf_inner_loop            1  4.0    0.000    0.001    1.670    1.670
 compute_vec_Sigma_x_minus_vxc_       1  4.0    0.000    0.000    1.576    1.576
 pw_transfer                         39  8.7    0.003    0.004    1.359    1.408
 qs_ks_update_qs_env                  1  5.0    0.000    0.000    1.393    1.393
 rebuild_ks_matrix                    1  6.0    0.000    0.000    1.393    1.393
 fft_wrap_pw1pw2                     31 10.0    0.000    0.001    1.330    1.381
 fft_wrap_pw1pw2_200                 18 10.9    0.087    0.102    1.079    1.127
 fft3d_ps                            31 12.0    0.466    0.514    0.968    1.035
 rs_pw_transfer                      22  8.7    0.001    0.001    0.983    1.015
 integrate_four_center                1  5.0    0.002    0.003    0.988    0.988
 dbcsr_multiply_generic             524  9.8    0.019    0.021    0.787    0.815
 GW_postprocessing                    1  7.0    0.000    0.000    0.793    0.793
 compute_self_energy_im_time_gw       1  8.0    0.001    0.001    0.792    0.792
 mp_sum_dm                           12  7.8    0.433    0.628    0.433    0.628
 qs_rho_update_rho                    2  5.0    0.000    0.000    0.584    0.584
 calculate_rho_elec                   2  6.0    0.002    0.022    0.583    0.583
 density_rs2pw                        2  7.0    0.000    0.000    0.536    0.552
 calc_screening_functions             1  6.0    0.212    0.254    0.421    0.524
 qs_init_subsys                       1  2.0    0.002    0.003    0.523    0.523
 qs_vxc_create                        2  7.0    0.000    0.000    0.521    0.521
 xc_vxc_pw_create                     1  9.0    0.007    0.011    0.521    0.521
 mp_waitany                         364 10.6    0.375    0.495    0.375    0.495
 mp_alltoall_z22v                    31 14.0    0.367    0.489    0.367    0.489
 qs_env_setup                         1  3.0    0.000    0.000    0.466    0.483
 qs_env_rebuild_pw_env                2  3.5    0.000    0.000    0.465    0.483
 pw_env_rebuild                       1  5.0    0.001    0.001    0.465    0.482
 powell_optimize                  84717  7.0    0.367    0.472    0.367    0.472
 sum_up_and_integrate                 2  7.0    0.002    0.003    0.444    0.468
 integrate_v_rspace                   2  8.0    0.001    0.025    0.442    0.466
 pw_grid_setup                        5  6.0    0.000    0.000    0.442    0.443
 pw_grid_setup_internal               5  7.0    0.008    0.011    0.442    0.443
 potential_pw2rs                      2  9.0    0.000    0.000    0.439    0.440
 rs_pw_transfer_PW2RS_200             5  9.6    0.213    0.253    0.391    0.423
 multiply_cannon                    524 10.8    0.074    0.083    0.354    0.407
 rs_pw_transfer_RS2PW_200             5  9.2    0.195    0.257    0.383    0.400
 mp_sum_l                          2581 10.8    0.238    0.380    0.238    0.380
 yz_to_x                             16 12.9    0.065    0.085    0.289    0.358
 mp_sum_dv                           40  8.0    0.247    0.354    0.247    0.354
 calc_pair_dist_radii                 1  6.0    0.119    0.143    0.277    0.348
 get_l_sq_wghts_sin_tf_t_to_w         1  7.0    0.124    0.346    0.346    0.346
 get_l_sq_wghts_cos_tf_w_to_t         1  7.0    0.123    0.343    0.344    0.345
 prepare_gapw_den                     2  7.0    0.000    0.000    0.332    0.344
 pw_poisson_solve                     3  6.0    0.040    0.048    0.332    0.332
 get_l_sq_wghts_cos_tf_t_to_w         1  7.0    0.129    0.327    0.327    0.328
 init_scf_run                         1  3.0    0.000    0.000    0.325    0.325
 scf_env_initial_rho_setup            1  4.0    0.000    0.000    0.322    0.322
 make_m2s                          1048 10.8    0.020    0.023    0.302    0.317
 put_rho0_on_grid                     2  8.0    0.002    0.002    0.304    0.317
 pw_grid_sort                         5  8.0    0.176    0.205    0.264    0.311
 integrate_four_center_load           1  6.0    0.000    0.000    0.174    0.308
 hfx_load_balance                     1  7.0    0.000    0.000    0.174    0.308
 hfx_load_balance_range               1  8.0    0.000    0.003    0.167    0.301
 compute_self_energy_im_time_gw     154  9.0    0.000    0.000    0.260    0.278
 scf_post_calculation_gpw             1  3.0    0.000    0.000    0.267    0.273
 pw_poisson_rebuild                   3  7.0    0.002    0.003    0.243    0.265
 MTin_create_screen_fn                1 10.0    0.006    0.009    0.241    0.263
 x_to_yz                             15 13.1    0.068    0.085    0.211    0.261
 xc_rho_set_and_dset_create           1 10.0    0.004    0.009    0.226    0.258
 compute_self_energy_im_time_gw     154  9.0    0.000    0.000    0.248    0.250
 compute_self_energy_im_time_gw     154  9.0    0.000    0.000    0.232    0.242
 make_images                       1048 11.8    0.028    0.032    0.206    0.218
 fft_wrap_pw1pw2_400                  1 13.0    0.009    0.015    0.176    0.208
 mp_waitall_1                     36322 13.4    0.135    0.206    0.135    0.206
 mp_sum_d                           789  5.1    0.153    0.203    0.153    0.203
 pw_gather_p                         16 11.9    0.147    0.202    0.147    0.202
 integrate_vhg0_rspace                2  7.0    0.002    0.003    0.192    0.194
 write_available_results              1  4.0    0.000    0.000    0.174    0.174
 write_mo_free_results                1  5.0    0.003    0.004    0.174    0.174
 rs_grid_zero                        20  8.7    0.133    0.151    0.133    0.151
 multiply_cannon_metrocomm3        9663 11.9    0.013    0.015    0.080    0.150
 pw_scatter_p                        15 12.1    0.117    0.149    0.117    0.149
 -------------------------------------------------------------------------------

 The number of warnings for this run is : 2
 
 -------------------------------------------------------------------------------
  **** **** ******  **  PROGRAM ENDED AT                 2019-05-31 16:21:18.967
 ***** ** ***  *** **   PROGRAM RAN ON                                    tcopt4
 **    ****   ******    PROGRAM RAN BY                                   wilhelm
 ***** **    ** ** **   PROGRAM PROCESS ID                                 75820
  **** **  *******  **  PROGRAM STOPPED IN /data/wilhelm/2_job_test/11_GW100/3_c
                                           alcs/01_He
