 DBCSR| CPU Multiplication driver                                           BLAS
 DBCSR| Multrec recursion limit                                              512
 DBCSR| Multiplication stack size                                           1000
 DBCSR| Maximum elements for images                                    UNLIMITED
 DBCSR| Multiplicative factor virtual images                                   1
 DBCSR| Use multiplication densification                                       T
 DBCSR| Multiplication size stacks                                             3
 DBCSR| Number of 3D layers                                               SINGLE
 DBCSR| Use MPI memory allocation                                              T
 DBCSR| Use RMA algorithm                                                      F
 DBCSR| Use Communication thread                                               T
 DBCSR| Communication thread load                                             87


  **** **** ******  **  PROGRAM STARTED AT               2019-06-07 02:53:22.086
 ***** ** ***  *** **   PROGRAM STARTED ON                                tcopt4
 **    ****   ******    PROGRAM STARTED BY                               wilhelm
 ***** **    ** ** **   PROGRAM PROCESS ID                                 50172
  **** **  *******  **  PROGRAM STARTED IN /data/wilhelm/2_job_test/11_GW100/3_c
                                           alcs/01_He

 CP2K| version string:                    CP2K version 7.0 (Development Version)
 CP2K| source code revision number:                                  git:bc2813a
 CP2K| cp2kflags: libint fftw3 libxc pexsi elpa=201705 parallel mpi3 scalapack q
 CP2K|            uip libderiv_max_am1=5 libint_max_am=6
 CP2K| is freely available from                            https://www.cp2k.org/
 CP2K| Program compiled at                         Sun Jun  2 14:38:23 CEST 2019
 CP2K| Program compiled on                                                tcopt4
 CP2K| Program compiled for                            local_valgrind_March_2019
 CP2K| Data directory path              /data/wilhelm/1_git_repository/cp2k/data
 CP2K| Input file name                                                    GW.inp

 GLOBAL| Force Environment number                                              1
 GLOBAL| Basis set file name                              BASIS_def2_QZVP_RI_ALL
 GLOBAL| Potential file name                                           POTENTIAL
 GLOBAL| MM Potential file name                                     MM_POTENTIAL
 GLOBAL| Coordinate file name                                          01_He.xyz
 GLOBAL| Method name                                                        CP2K
 GLOBAL| Project name                                                   ALL_ELEC
 GLOBAL| Preferred FFT library                                             FFTW3
 GLOBAL| Preferred diagonalization lib.                                       SL
 GLOBAL| Run type                                                         ENERGY
 GLOBAL| All-to-all communication in single precision                          F
 GLOBAL| FFTs using library dependent lengths                                  F
 GLOBAL| Global print level                                               MEDIUM
 GLOBAL| MPI I/O enabled                                                       T
 GLOBAL| Total number of message passing processes                            24
 GLOBAL| Number of threads for this process                                    1
 GLOBAL| This output is from process                                           0
 GLOBAL| CPU model name :  Intel(R) Xeon(R) CPU E5-2697 v3 @ 2.60GHz

 MEMORY| system memory details [Kb]
 MEMORY|                        rank 0           min           max       average
 MEMORY| MemTotal            396954008     396954008     396954008     396954008
 MEMORY| MemFree             358222104     358222104     358222104     358222104
 MEMORY| Buffers                273196        273196        273196        273196
 MEMORY| Cached               34414968      34414968      34414968      34414968
 MEMORY| Slab                  1182596       1182596       1182596       1182596
 MEMORY| SReclaimable          1049232       1049232       1049232       1049232
 MEMORY| MemLikelyFree       393959500     393959500     393959500     393959500


 *** Fundamental physical constants (SI units) ***

 *** Literature: B. J. Mohr and B. N. Taylor,
 ***             CODATA recommended values of the fundamental physical
 ***             constants: 2006, Web Version 5.1
 ***             http://physics.nist.gov/constants

 Speed of light in vacuum [m/s]                             2.99792458000000E+08
 Magnetic constant or permeability of vacuum [N/A**2]       1.25663706143592E-06
 Electric constant or permittivity of vacuum [F/m]          8.85418781762039E-12
 Planck constant (h) [J*s]                                  6.62606896000000E-34
 Planck constant (h-bar) [J*s]                              1.05457162825177E-34
 Elementary charge [C]                                      1.60217648700000E-19
 Electron mass [kg]                                         9.10938215000000E-31
 Electron g factor [ ]                                     -2.00231930436220E+00
 Proton mass [kg]                                           1.67262163700000E-27
 Fine-structure constant                                    7.29735253760000E-03
 Rydberg constant [1/m]                                     1.09737315685270E+07
 Avogadro constant [1/mol]                                  6.02214179000000E+23
 Boltzmann constant [J/K]                                   1.38065040000000E-23
 Atomic mass unit [kg]                                      1.66053878200000E-27
 Bohr radius [m]                                            5.29177208590000E-11

 *** Conversion factors ***

 [u] -> [a.u.]                                              1.82288848426455E+03
 [Angstrom] -> [Bohr] = [a.u.]                              1.88972613288564E+00
 [a.u.] = [Bohr] -> [Angstrom]                              5.29177208590000E-01
 [a.u.] -> [s]                                              2.41888432650478E-17
 [a.u.] -> [fs]                                             2.41888432650478E-02
 [a.u.] -> [J]                                              4.35974393937059E-18
 [a.u.] -> [N]                                              8.23872205491840E-08
 [a.u.] -> [K]                                              3.15774647902944E+05
 [a.u.] -> [kJ/mol]                                         2.62549961709828E+03
 [a.u.] -> [kcal/mol]                                       6.27509468713739E+02
 [a.u.] -> [Pa]                                             2.94210107994716E+13
 [a.u.] -> [bar]                                            2.94210107994716E+08
 [a.u.] -> [atm]                                            2.90362800883016E+08
 [a.u.] -> [eV]                                             2.72113838565563E+01
 [a.u.] -> [Hz]                                             6.57968392072181E+15
 [a.u.] -> [1/cm] (wave numbers)                            2.19474631370540E+05
 [a.u./Bohr**2] -> [1/cm]                                   5.14048714338585E+03
 

 CELL_TOP| Volume [angstrom^3]:                                         4096.000
 CELL_TOP| Vector a [angstrom    16.000     0.000     0.000    |a| =      16.000
 CELL_TOP| Vector b [angstrom     0.000    16.000     0.000    |b| =      16.000
 CELL_TOP| Vector c [angstrom     0.000     0.000    16.000    |c| =      16.000
 CELL_TOP| Angle (b,c), alpha [degree]:                                   90.000
 CELL_TOP| Angle (a,c), beta  [degree]:                                   90.000
 CELL_TOP| Angle (a,b), gamma [degree]:                                   90.000
 CELL_TOP| Numerically orthorhombic:                                         YES

 GENERATE|  Preliminary Number of Bonds generated:                             0
 GENERATE|  Achieved consistency in connectivity generation.

 CELL| Volume [angstrom^3]:                                             4096.000
 CELL| Vector a [angstrom]:      16.000     0.000     0.000    |a| =      16.000
 CELL| Vector b [angstrom]:       0.000    16.000     0.000    |b| =      16.000
 CELL| Vector c [angstrom]:       0.000     0.000    16.000    |c| =      16.000
 CELL| Angle (b,c), alpha [degree]:                                       90.000
 CELL| Angle (a,c), beta  [degree]:                                       90.000
 CELL| Angle (a,b), gamma [degree]:                                       90.000
 CELL| Numerically orthorhombic:                                             YES

 CELL_REF| Volume [angstrom^3]:                                         4096.000
 CELL_REF| Vector a [angstrom    16.000     0.000     0.000    |a| =      16.000
 CELL_REF| Vector b [angstrom     0.000    16.000     0.000    |b| =      16.000
 CELL_REF| Vector c [angstrom     0.000     0.000    16.000    |c| =      16.000
 CELL_REF| Angle (b,c), alpha [degree]:                                   90.000
 CELL_REF| Angle (a,c), beta  [degree]:                                   90.000
 CELL_REF| Angle (a,b), gamma [degree]:                                   90.000
 CELL_REF| Numerically orthorhombic:                                         YES

 *******************************************************************************
 *******************************************************************************
 **                                                                           **
 **     #####                         ##              ##                      **
 **    ##   ##            ##          ##              ##                      **
 **   ##     ##                       ##            ######                    **
 **   ##     ##  ##   ##  ##   #####  ##  ##   ####   ##    #####    #####    **
 **   ##     ##  ##   ##  ##  ##      ## ##   ##      ##   ##   ##  ##   ##   **
 **   ##  ## ##  ##   ##  ##  ##      ####     ###    ##   ######   ######    **
 **    ##  ###   ##   ##  ##  ##      ## ##      ##   ##   ##       ##        **
 **     #######   #####   ##   #####  ##  ##  ####    ##    #####   ##        **
 **           ##                                                    ##        **
 **                                                                           **
 **                                                ... make the atoms dance   **
 **                                                                           **
 **            Copyright (C) by CP2K developers group (2000 - 2019)           **
 **                                                                           **
 *******************************************************************************

 DFT| Spin restricted Kohn-Sham (RKS) calculation                            RKS
 DFT| Multiplicity                                                             1
 DFT| Number of spin states                                                    1
 DFT| Charge                                                                   0
 DFT| Self-interaction correction (SIC)                                       NO
 DFT| Cutoffs: density                                              1.000000E-10
 DFT|          gradient                                             1.000000E-10
 DFT|          tau                                                  1.000000E-10
 DFT|          cutoff_smoothing_range                               0.000000E+00
 DFT| XC density smoothing                                                  NONE
 DFT| XC derivatives                                                          PW
 FUNCTIONAL| ROUTINE=NEW
 FUNCTIONAL| PBE:
 FUNCTIONAL| J.P.Perdew, K.Burke, M.Ernzerhof, Phys. Rev. Letter, vol. 77, n 18,
 FUNCTIONAL|  pp. 3865-3868, (1996){spin unpolarized}                           

 QS| Method:                                                                GAPW
 QS| Density plane wave grid type                        NON-SPHERICAL FULLSPACE
 QS| Number of grid levels:                                                    4
 QS| Density cutoff [a.u.]:                                                200.0
 QS| Multi grid cutoff [a.u.]: 1) grid level                               200.0
 QS|                           2) grid level                                66.7
 QS|                           3) grid level                                22.2
 QS|                           4) grid level                                 7.4
 QS| Grid level progression factor:                                          3.0
 QS| Relative density cutoff [a.u.]:                                        25.0
 QS| Consistent realspace mapping and integration 
 QS| Interaction thresholds: eps_pgf_orb:                                1.0E-05
 QS|                         eps_filter_matrix:                          0.0E+00
 QS|                         eps_core_charge:                            1.0E-12
 QS|                         eps_rho_gspace:                             1.0E-10
 QS|                         eps_rho_rspace:                             1.0E-10
 QS|                         eps_gvg_rspace:                             1.0E-05
 QS|                         eps_ppl:                                    1.0E-02
 QS|                         eps_ppnl:                                   1.0E-07
 QS| GAPW|                   eps_fit:                                    1.0E-04
 QS| GAPW|                   eps_iso:                                    1.0E-12
 QS| GAPW|                   eps_svd:                                    1.0E-08
 QS| GAPW|                   eps_cpc:                                    1.0E-10
 QS| GAPW|   atom-r-grid: quadrature:                 GC_LOG                        
 QS| GAPW|      atom-s-grid:  max l :                                          6
 QS| GAPW|      max_l_rho0 :                                                   2


 ATOMIC KIND INFORMATION

  1. Atomic kind: He                                    Number of atoms:       1

     Orbital Basis Set                                                 def2-QZVP

       Number of orbital shell sets:                                          10
       Number of orbital shells:                                              10
       Number of primitive Cartesian functions:                               14
       Number of Cartesian basis functions:                                   35
       Number of spherical basis functions:                                   30
       Norm type:                                                              2

       Normalised Cartesian orbitals:

                        Set   Shell   Orbital            Exponent    Coefficient

                          1       1    1s             1144.647081       0.231717
                                                       171.645967       0.431697
                                                        39.066056       0.730707
                                                        11.051402       1.103692
                                                         3.572557       1.379698

                          2       1    1s                1.242942       0.838973

                          3       1    1s                0.448077       0.390323

                          4       1    1s                0.164116       0.183769

                          5       1    1px               5.994000      13.368603
                          5       1    1py               5.994000      13.368603
                          5       1    1pz               5.994000      13.368603

                          6       1    1px               1.745000       2.858804
                          6       1    1py               1.745000       2.858804
                          6       1    1pz               1.745000       2.858804

                          7       1    1px               0.560000       0.690518
                          7       1    1py               0.560000       0.690518
                          7       1    1pz               0.560000       0.690518

                          8       1    1dx2              4.299000      21.125281
                          8       1    1dxy              4.299000      36.590059
                          8       1    1dxz              4.299000      36.590059
                          8       1    1dy2              4.299000      21.125281
                          8       1    1dyz              4.299000      36.590059
                          8       1    1dz2              4.299000      21.125281

                          9       1    1dx2              1.223000       2.341023
                          9       1    1dxy              1.223000       4.054771
                          9       1    1dxz              1.223000       4.054771
                          9       1    1dy2              1.223000       2.341023
                          9       1    1dyz              1.223000       4.054771
                          9       1    1dz2              1.223000       2.341023

                         10       1    1fx3              2.680000      13.528752
                         10       1    1fx2y             2.680000      30.251209
                         10       1    1fx2z             2.680000      30.251209
                         10       1    1fxy2             2.680000      30.251209
                         10       1    1fxyz             2.680000      52.396631
                         10       1    1fxz2             2.680000      30.251209
                         10       1    1fy3              2.680000      13.528752
                         10       1    1fy2z             2.680000      30.251209
                         10       1    1fyz2             2.680000      30.251209
                         10       1    1fz3              2.680000      13.528752

     RI Auxiliary Basis Set                                                RI-5Z

       Number of orbital shell sets:                                          21
       Number of orbital shells:                                              21
       Number of primitive Cartesian functions:                               21
       Number of Cartesian basis functions:                                  126
       Number of spherical basis functions:                                   91
       Norm type:                                                              2

       Normalised Cartesian orbitals:

                        Set   Shell   Orbital            Exponent    Coefficient

                          1       1    1s               69.957700      17.239979

                          2       1    1s               15.569200       5.586114

                          3       1    1s                5.026940       2.392698

                          4       1    1s                1.997460       1.197481

                          5       1    1s                0.847999       0.629806

                          6       1    1s                0.373257       0.340342

                          7       1    1px              14.241400      39.434918
                          7       1    1py              14.241400      39.434918
                          7       1    1pz              14.241400      39.434918

                          8       1    1px               4.785100      10.087972
                          8       1    1py               4.785100      10.087972
                          8       1    1pz               4.785100      10.087972

                          9       1    1px               3.288140       6.311433
                          9       1    1py               3.288140       6.311433
                          9       1    1pz               3.288140       6.311433

                         10       1    1px               1.899330       3.178269
                         10       1    1py               1.899330       3.178269
                         10       1    1pz               1.899330       3.178269

                         11       1    1px               0.772218       1.031846
                         11       1    1py               0.772218       1.031846
                         11       1    1pz               0.772218       1.031846

                         12       1    1dx2             11.057200     110.354106
                         12       1    1dxy             11.057200     191.138918
                         12       1    1dxz             11.057200     191.138918
                         12       1    1dy2             11.057200     110.354106
                         12       1    1dyz             11.057200     191.138918
                         12       1    1dz2             11.057200     110.354106

                         13       1    1dx2              5.762230      35.273048
                         13       1    1dxy              5.762230      61.094711
                         13       1    1dxz              5.762230      61.094711
                         13       1    1dy2              5.762230      35.273048
                         13       1    1dyz              5.762230      61.094711
                         13       1    1dz2              5.762230      35.273048

                         14       1    1dx2              3.520060      14.889224
                         14       1    1dxy              3.520060      25.788893
                         14       1    1dxz              3.520060      25.788893
                         14       1    1dy2              3.520060      14.889224
                         14       1    1dyz              3.520060      25.788893
                         14       1    1dz2              3.520060      14.889224

                         15       1    1dx2              1.340090       2.747223
                         15       1    1dxy              1.340090       4.758330
                         15       1    1dxz              1.340090       4.758330
                         15       1    1dy2              1.340090       2.747223
                         15       1    1dyz              1.340090       4.758330
                         15       1    1dz2              1.340090       2.747223

                         16       1    1fx3              8.291460     171.741093
                         16       1    1fx2y             8.291460     384.024758
                         16       1    1fx2z             8.291460     384.024758
                         16       1    1fxy2             8.291460     384.024758
                         16       1    1fxyz             8.291460     665.150392
                         16       1    1fxz2             8.291460     384.024758
                         16       1    1fy3              8.291460     171.741093
                         16       1    1fy2z             8.291460     384.024758
                         16       1    1fyz2             8.291460     384.024758
                         16       1    1fz3              8.291460     171.741093

                         17       1    1fx3              5.450110      66.813820
                         17       1    1fx2y             5.450110     149.400243
                         17       1    1fx2z             5.450110     149.400243
                         17       1    1fxy2             5.450110     149.400243
                         17       1    1fxyz             5.450110     258.768812
                         17       1    1fxz2             5.450110     149.400243
                         17       1    1fy3              5.450110      66.813820
                         17       1    1fy2z             5.450110     149.400243
                         17       1    1fyz2             5.450110     149.400243
                         17       1    1fz3              5.450110      66.813820

                         18       1    1fx3              2.267140       9.284974
                         18       1    1fx2y             2.267140      20.761834
                         18       1    1fx2z             2.267140      20.761834
                         18       1    1fxy2             2.267140      20.761834
                         18       1    1fxyz             2.267140      35.960551
                         18       1    1fxz2             2.267140      20.761834
                         18       1    1fy3              2.267140       9.284974
                         18       1    1fy2z             2.267140      20.761834
                         18       1    1fyz2             2.267140      20.761834
                         18       1    1fz3              2.267140       9.284974

                         19       1    1gx4              8.220310     365.071528
                         19       1    1gx3y             8.220310     965.888474
                         19       1    1gx3z             8.220310     965.888474
                         19       1    1gx2y2            8.220310    1246.956658
                         19       1    1gx2yz            8.220310    2159.792286
                         19       1    1gx2z2            8.220310    1246.956658
                         19       1    1gxy3             8.220310     965.888474
                         19       1    1gxy2z            8.220310    2159.792286
                         19       1    1gxyz2            8.220310    2159.792286
                         19       1    1gxz3             8.220310     965.888474
                         19       1    1gy4              8.220310     365.071528
                         19       1    1gy3z             8.220310     965.888474
                         19       1    1gy2z2            8.220310    1246.956658
                         19       1    1gyz3             8.220310     965.888474
                         19       1    1gz4              8.220310     365.071528

                         20       1    1gx4              4.159820      56.090641
                         20       1    1gx3y             4.159820     148.401888
                         20       1    1gx3z             4.159820     148.401888
                         20       1    1gx2y2            4.159820     191.586014
                         20       1    1gx2yz            4.159820     331.836710
                         20       1    1gx2z2            4.159820     191.586014
                         20       1    1gxy3             4.159820     148.401888
                         20       1    1gxy2z            4.159820     331.836710
                         20       1    1gxyz2            4.159820     331.836710
                         20       1    1gxz3             4.159820     148.401888
                         20       1    1gy4              4.159820      56.090641
                         20       1    1gy3z             4.159820     148.401888
                         20       1    1gy2z2            4.159820     191.586014
                         20       1    1gyz3             4.159820     148.401888
                         20       1    1gz4              4.159820      56.090641

                         21       1    1hx5              5.848000     230.737456
                         21       1    1hx4y             5.848000     692.212367
                         21       1    1hx4z             5.848000     692.212367
                         21       1    1hx3y2            5.848000    1057.371856
                         21       1    1hx3yz            5.848000    1831.421777
                         21       1    1hx3z2            5.848000    1057.371856
                         21       1    1hx2y3            5.848000    1057.371856
                         21       1    1hx2y2z           5.848000    2364.355347
                         21       1    1hx2yz2           5.848000    2364.355347
                         21       1    1hx2z3            5.848000    1057.371856
                         21       1    1hxy4             5.848000     692.212367
                         21       1    1hxy3z            5.848000    1831.421777
                         21       1    1hxy2z2           5.848000    2364.355347
                         21       1    1hxyz3            5.848000    1831.421777
                         21       1    1hxz4             5.848000     692.212367
                         21       1    1hy5              5.848000     230.737456
                         21       1    1hy4z             5.848000     692.212367
                         21       1    1hy3z2            5.848000    1057.371856
                         21       1    1hy2z3            5.848000    1057.371856
                         21       1    1hyz4             5.848000     692.212367
                         21       1    1hz5              5.848000     230.737456

     The atoms of this atomic kind are PAW atoms (GAPW):
       Hard Gaussian function radius:                                      1.512
       Rho0 radius:                                                        1.512
       Maximum GTO radius used for PAW projector construction:            24.566

     GAPW Soft Basis Set                                          def2-QZVP_soft

       Number of orbital shell sets:                                          10
       Number of orbital shells:                                              10
       Number of primitive Cartesian functions:                                9
       Number of Cartesian basis functions:                                   35
       Number of spherical basis functions:                                   30
       Norm type:                                                              2

       Normalised Cartesian orbitals:

                        Set   Shell   Orbital            Exponent    Coefficient

                          1       1    1s                3.572557       1.379698

                          2       1    1s                1.242942       0.838973

                          3       1    1s                0.448077       0.390323

                          4       1    1s                0.164116       0.183769

                          5       1    1px        
                          5       1    1py        
                          5       1    1pz        

                          6       1    1px               1.745000       2.858804
                          6       1    1py               1.745000       2.858804
                          6       1    1pz               1.745000       2.858804

                          7       1    1px               0.560000       0.690518
                          7       1    1py               0.560000       0.690518
                          7       1    1pz               0.560000       0.690518

                          8       1    1dx2              4.299000      21.125281
                          8       1    1dxy              4.299000      36.590059
                          8       1    1dxz              4.299000      36.590059
                          8       1    1dy2              4.299000      21.125281
                          8       1    1dyz              4.299000      36.590059
                          8       1    1dz2              4.299000      21.125281

                          9       1    1dx2              1.223000       2.341023
                          9       1    1dxy              1.223000       4.054771
                          9       1    1dxz              1.223000       4.054771
                          9       1    1dy2              1.223000       2.341023
                          9       1    1dyz              1.223000       4.054771
                          9       1    1dz2              1.223000       2.341023

                         10       1    1fx3              2.680000      13.528752
                         10       1    1fx2y             2.680000      30.251209
                         10       1    1fx2z             2.680000      30.251209
                         10       1    1fxy2             2.680000      30.251209
                         10       1    1fxyz             2.680000      52.396631
                         10       1    1fxz2             2.680000      30.251209
                         10       1    1fy3              2.680000      13.528752
                         10       1    1fy2z             2.680000      30.251209
                         10       1    1fyz2             2.680000      30.251209
                         10       1    1fz3              2.680000      13.528752

     AE Potential information for                                            ALL

       Description:                                       All-electron potential
                                          Krack, Parrinello, PCCP 2, 2105 (2000)

       Gaussian exponent of the core charge distribution:              12.500000
       Electronic configuration (s p d ...):                           2   0   0


 MOLECULE KIND INFORMATION


 All atoms are their own molecule, skipping detailed information


 TOTAL NUMBERS AND MAXIMUM NUMBERS

  Total number of            - Atomic kinds:                                   1
                             - Atoms:                                          1
                             - Shell sets:                                    10
                             - Shells:                                        10
                             - Primitive Cartesian functions:                 14
                             - Cartesian basis functions:                     35
                             - Spherical basis functions:                     30

  Maximum angular momentum of the orbital basis functions:                     3


 MODULE QUICKSTEP:  ATOMIC COORDINATES IN angstrom

  Atom  Kind  Element       X           Y           Z          Z(eff)       Mass

       1     1 He   2    8.000000    8.000000    8.000000      2.00       4.0026




 SCF PARAMETERS         Density guess:                                   RESTART
                        --------------------------------------------------------
                        max_scf:                                             200
                        max_scf_history:                                       0
                        max_diis:                                              4
                        --------------------------------------------------------
                        eps_scf:                                        1.00E-06
                        eps_scf_history:                                0.00E+00
                        eps_diis:                                       1.00E-01
                        eps_eigval:                                     1.00E-05
                        --------------------------------------------------------
                        level_shift [a.u.]:                                 0.00
                        --------------------------------------------------------
                        Mixing method:                           DIRECT_P_MIXING
                        --------------------------------------------------------
                        No outer SCF

 PW_GRID| Information for grid number                                          1
 PW_GRID| Grid distributed over                                    24 processors
 PW_GRID| Real space group dimensions                                    24    1
 PW_GRID| the grid is blocked:                                                NO
 PW_GRID| Cutoff [a.u.]                                                    400.0
 PW_GRID| spherical cutoff:                                                   NO
 PW_GRID|   Bounds   1           -144     143                Points:         288
 PW_GRID|   Bounds   2           -144     143                Points:         288
 PW_GRID|   Bounds   3           -144     143                Points:         288
 PW_GRID| Volume element (a.u.^3)  0.1157E-02     Volume (a.u.^3)     27641.1785
 PW_GRID| Grid span                                                    FULLSPACE
 PW_GRID|   Distribution                         Average         Max         Min
 PW_GRID|   G-Vectors                           995328.0      995328      995328
 PW_GRID|   G-Rays                                3456.0        3456        3456
 PW_GRID|   Real Space Points                   995328.0      995328      995328

 PW_GRID| Information for grid number                                          2
 PW_GRID| Grid distributed over                                    24 processors
 PW_GRID| Real space group dimensions                                    24    1
 PW_GRID| the grid is blocked:                                                NO
 PW_GRID| Cutoff [a.u.]                                                    200.0
 PW_GRID| spherical cutoff:                                                   NO
 PW_GRID|   Bounds   1           -100      99                Points:         200
 PW_GRID|   Bounds   2           -100      99                Points:         200
 PW_GRID|   Bounds   3           -100      99                Points:         200
 PW_GRID| Volume element (a.u.^3)  0.3455E-02     Volume (a.u.^3)     27641.1785
 PW_GRID| Grid span                                                    FULLSPACE
 PW_GRID|   Distribution                         Average         Max         Min
 PW_GRID|   G-Vectors                           333333.3      333600      333200
 PW_GRID|   G-Rays                                1666.7        1668        1666
 PW_GRID|   Real Space Points                   333333.3      360000      320000

 PW_GRID| Information for grid number                                          3
 PW_GRID| Grid distributed over                                    24 processors
 PW_GRID| Real space group dimensions                                    24    1
 PW_GRID| the grid is blocked:                                                NO
 PW_GRID| Cutoff [a.u.]                                                     66.7
 PW_GRID| spherical cutoff:                                                   NO
 PW_GRID|   Bounds   1            -60      59                Points:         120
 PW_GRID|   Bounds   2            -60      59                Points:         120
 PW_GRID|   Bounds   3            -60      59                Points:         120
 PW_GRID| Volume element (a.u.^3)  0.1600E-01     Volume (a.u.^3)     27641.1785
 PW_GRID| Grid span                                                    FULLSPACE
 PW_GRID|   Distribution                         Average         Max         Min
 PW_GRID|   G-Vectors                            72000.0       72360       71760
 PW_GRID|   G-Rays                                 600.0         603         598
 PW_GRID|   Real Space Points                    72000.0       72000       72000

 PW_GRID| Information for grid number                                          4
 PW_GRID| Grid distributed over                                    24 processors
 PW_GRID| Real space group dimensions                                    24    1
 PW_GRID| the grid is blocked:                                                NO
 PW_GRID| Cutoff [a.u.]                                                     22.2
 PW_GRID| spherical cutoff:                                                   NO
 PW_GRID|   Bounds   1            -36      35                Points:          72
 PW_GRID|   Bounds   2            -36      35                Points:          72
 PW_GRID|   Bounds   3            -36      35                Points:          72
 PW_GRID| Volume element (a.u.^3)  0.7406E-01     Volume (a.u.^3)     27641.1785
 PW_GRID| Grid span                                                    FULLSPACE
 PW_GRID|   Distribution                         Average         Max         Min
 PW_GRID|   G-Vectors                            15552.0       15768       15408
 PW_GRID|   G-Rays                                 216.0         219         214
 PW_GRID|   Real Space Points                    15552.0       15552       15552

 PW_GRID| Information for grid number                                          5
 PW_GRID| Grid distributed over                                    24 processors
 PW_GRID| Real space group dimensions                                    24    1
 PW_GRID| the grid is blocked:                                                NO
 PW_GRID| Cutoff [a.u.]                                                      7.4
 PW_GRID| spherical cutoff:                                                   NO
 PW_GRID|   Bounds   1            -20      19                Points:          40
 PW_GRID|   Bounds   2            -20      19                Points:          40
 PW_GRID|   Bounds   3            -20      19                Points:          40
 PW_GRID| Volume element (a.u.^3)  0.4319         Volume (a.u.^3)     27641.1785
 PW_GRID| Grid span                                                    FULLSPACE
 PW_GRID|   Distribution                         Average         Max         Min
 PW_GRID|   G-Vectors                             2666.7        2720        2640
 PW_GRID|   G-Rays                                  66.7          68          66
 PW_GRID|   Real Space Points                     2666.7        3200        1600

 POISSON| Solver                                          Martyna-Tuckerman (MT)
 POISSON| MT| Alpha                                                        7.000
 POISSON| MT| Relative cutoff                                                2.0
 POISSON| Periodicity                                                       NONE

 RS_GRID| Information for grid number                                          2
 RS_GRID|   Bounds   1           -100      99                Points:         200
 RS_GRID|   Bounds   2           -100      99                Points:         200
 RS_GRID|   Bounds   3           -100      99                Points:         200
 RS_GRID| Real space distribution over                                  4 groups
 RS_GRID| Real space distribution along direction                              2
 RS_GRID| Border size                                                         23
 RS_GRID| Real space distribution over                                  6 groups
 RS_GRID| Real space distribution along direction                              3
 RS_GRID| Border size                                                         23
 RS_GRID|   Distribution                         Average         Max         Min
 RS_GRID|   Planes                                  96.0          96          96
 RS_GRID|   Distribution                         Average         Max         Min
 RS_GRID|   Planes                                  79.3          80          79

 RS_GRID| Information for grid number                                          3
 RS_GRID|   Bounds   1            -60      59                Points:         120
 RS_GRID|   Bounds   2            -60      59                Points:         120
 RS_GRID|   Bounds   3            -60      59                Points:         120
 RS_GRID| Real space distribution over                                  4 groups
 RS_GRID| Real space distribution along direction                              2
 RS_GRID| Border size                                                         23
 RS_GRID| Real space distribution over                                  6 groups
 RS_GRID| Real space distribution along direction                              3
 RS_GRID| Border size                                                         23
 RS_GRID|   Distribution                         Average         Max         Min
 RS_GRID|   Planes                                  76.0          76          76
 RS_GRID|   Distribution                         Average         Max         Min
 RS_GRID|   Planes                                  66.0          66          66

 RS_GRID| Information for grid number                                          4
 RS_GRID|   Bounds   1            -36      35                Points:          72
 RS_GRID|   Bounds   2            -36      35                Points:          72
 RS_GRID|   Bounds   3            -36      35                Points:          72
 RS_GRID| Real space fully replicated
 RS_GRID| Group size                                                           1

 RS_GRID| Information for grid number                                          5
 RS_GRID|   Bounds   1            -20      19                Points:          40
 RS_GRID|   Bounds   2            -20      19                Points:          40
 RS_GRID|   Bounds   3            -20      19                Points:          40
 RS_GRID| Real space fully replicated
 RS_GRID| Group size                                                           1
 
 RI-RPA| using GPW style
 

  HFX_INFO| Replica ID:                                                        1
  HFX_INFO| EPS_SCHWARZ:                                                 2.0E-17
  HFX_INFO| EPS_SCHWARZ_FORCES                                           1.0E-06
  HFX_INFO| EPS_STORAGE_SCALING:                                         1.0E+00
  HFX_INFO| NBINS:                                                            64
  HFX_INFO| BLOCK_SIZE:                                                        1
  HFX_INFO| FRACTION:                                               1.0000000000
  HFX_INFO| Interaction Potential:                                       COULOMB
  HFX_INFO| Number of periodic shells considered:                           NONE
  HFX_INFO| Number of periodic cells considered:                            NONE


 Number of electrons:                                                          2
 Number of occupied orbitals:                                                  1
 Number of molecular orbitals:                                                 1

 Number of orbital functions:                                                 30
 Number of independent orbital functions:                                     30

 Extrapolation method: initial_guess


 SCF WAVEFUNCTION OPTIMIZATION

  Step     Update method      Time    Convergence         Total energy    Change
  ------------------------------------------------------------------------------
     1 P_Mix/Diag. 0.40E+00    1.4     1.3536E-11        -2.8928232581 -2.89E+00

  *** SCF run converged in     1 steps ***


  Electronic density on regular grids:         -1.8860157198        0.1139842802
  Core density on regular grids:                2.0000000000       -0.0000000000
  Hard and soft densities (Lebedev):           -1.9999999999       -1.8860157199
  Total Rho_soft + Rho1_hard - Rho1_soft       -1.9999999998
  Total charge density (r-space):               0.0000000002
  Total Rho_soft + Rho0_soft (g-space):        -0.0000000171

  Overlap energy of the core charge distribution:               0.00000000000000
  Self energy of the core charge distribution:                 -5.64189583547756
  Core Hamiltonian energy:                                      1.97490241650713
  Hartree energy:                                               0.75967476015167
  Exchange-correlation energy:                                 -0.91430647943585

  GAPW| Exc from hard and soft atomic rho1:                    -0.13227122802955
  GAPW| local Eh = 1 center integrals:                          1.06107310821358

  Total energy:                                                -2.89282325807058

 !-----------------------------------------------------------------------------!
                     Mulliken Population Analysis

 #  Atom  Element  Kind  Atomic population                           Net charge
       1     He       1          2.000000                             -0.000000
 # Total charge                              2.000000                 -0.000000

 !-----------------------------------------------------------------------------!

 !-----------------------------------------------------------------------------!
                           Hirshfeld Charges

  #Atom  Element  Kind  Ref Charge     Population                    Net charge
      1       He     1       2.000          2.000                         0.000

  Total Charge                                                            0.000
 !-----------------------------------------------------------------------------!


 RI-RPA section
 --------------

  Used number of processes per group:                                          1
  Maximum allowed memory usage per MPI processes:                     200.00 MiB

  HFX_MEM_INFO| Est. max. program size before HFX [MiB]:                     373
  HFX_MEM_INFO| Number of cart. primitive ERI's calculated:              2313441
  HFX_MEM_INFO| Number of sph. ERI's calculated:                          810000
  HFX_MEM_INFO| Number of sph. ERI's stored in-core:                      810000
  HFX_MEM_INFO| Number of sph. ERI's stored on disk:                           0
  HFX_MEM_INFO| Number of sph. ERI's calculated on the fly:                    0
  HFX_MEM_INFO| Total memory consumption ERI's RAM [MiB]:                      5
  HFX_MEM_INFO| Whereof max-vals [MiB]:                                        1
  HFX_MEM_INFO| Total compression factor ERI's RAM:                         1.31
  HFX_MEM_INFO| Total memory consumption ERI's disk [MiB]:                     0
  HFX_MEM_INFO| Total compression factor ERI's disk:                        0.00
  HFX_MEM_INFO| Size of density/Fock matrix [MiB]:                             0
  HFX_MEM_INFO| Size of buffers [MiB]:                                         0
  HFX_MEM_INFO| Est. max. program size after HFX  [MiB]:                     374

  GPW_INFO| Density cutoff [a.u.]:                                         150.0
  GPW_INFO| Relative density cutoff [a.u.]:                                 25.0
  RI_INFO| Cholesky decomposition group size:                                 24
  RI_INFO| Number of groups for auxiliary basis functions                     24
  RI_INFO| Occupied  basis set size:                                           1
  RI_INFO| Virtual   basis set size:                                          29
  RI_INFO| Auxiliary basis set size:                                          91
  RI_INFO| Total memory for (ia|K) integrals:                           0.02 MiB
  RI_INFO| Group size for frequency integration:                              24
  INTEG_INFO| MINIMAX quadrature
  INTEG_INFO| Number of integration points:                                   14
  INTEG_INFO| Number of integration points per RPA group:                     14
  MATRIX_INFO| Number row processes:                                           4
  MATRIX_INFO| Number column processes:                                        6
  MATRIX_INFO| Row block size:                                                 3
  MATRIX_INFO| Column block size:                                              7
 SIZE(fm_matrix_L_RI_metric, 1) =           1
 SIZE(fm_matrix_L_RI_metric, 2) =           1
 SIZE(fm_matrix_L_RI_metric, 1) =           1
 SIZE(fm_matrix_L_RI_metric, 2) =           1
 SIZE(fm_matrix_L_RI_metric, 1) =           1
 SIZE(fm_matrix_L_RI_metric, 2) =           1
 SIZE(fm_matrix_L_RI_metric, 1) =           1
 SIZE(fm_matrix_L_RI_metric, 2) =           1
 SIZE(fm_matrix_L_RI_metric, 1) =           1
 SIZE(fm_matrix_L_RI_metric, 2) =           1
 SIZE(fm_matrix_L_RI_metric, 1) =           1
 SIZE(fm_matrix_L_RI_metric, 2) =           1
 SIZE(fm_matrix_L_RI_metric, 1) =           1
 SIZE(fm_matrix_L_RI_metric, 2) =           1
 SIZE(fm_matrix_L_RI_metric, 1) =           1
 SIZE(fm_matrix_L_RI_metric, 2) =           1
 SIZE(fm_matrix_L_RI_metric, 1) =           1
 SIZE(fm_matrix_L_RI_metric, 2) =           1
 SIZE(fm_matrix_L_RI_metric, 1) =           1
 SIZE(fm_matrix_L_RI_metric, 2) =           1
 SIZE(fm_matrix_L_RI_metric, 1) =           1
 SIZE(fm_matrix_L_RI_metric, 2) =           1
 SIZE(fm_matrix_L_RI_metric, 1) =           1
 SIZE(fm_matrix_L_RI_metric, 2) =           1
 SIZE(fm_matrix_L_RI_metric, 1) =           1
 SIZE(fm_matrix_L_RI_metric, 2) =           1
 SIZE(fm_matrix_L_RI_metric, 1) =           1
 SIZE(fm_matrix_L_RI_metric, 2) =           1
 SIZE(fm_matrix_L_RI_metric, 1) =           1
 SIZE(fm_matrix_L_RI_metric, 2) =           1
 SIZE(fm_matrix_L_RI_metric, 1) =           1
 SIZE(fm_matrix_L_RI_metric, 2) =           1
 SIZE(fm_matrix_L_RI_metric, 1) =           1
 SIZE(fm_matrix_L_RI_metric, 2) =           1
 SIZE(fm_matrix_L_RI_metric, 1) =           1
 SIZE(fm_matrix_L_RI_metric, 2) =           1
 SIZE(fm_matrix_L_RI_metric, 1) =           1
 SIZE(fm_matrix_L_RI_metric, 2) =           1
 SIZE(fm_matrix_L_RI_metric, 1) =           1
 SIZE(fm_matrix_L_RI_metric, 2) =           1
 SIZE(fm_matrix_L_RI_metric, 1) =           1
 SIZE(fm_matrix_L_RI_metric, 2) =           1
 SIZE(fm_matrix_L_RI_metric, 1) =           1
 SIZE(fm_matrix_L_RI_metric, 2) =           1
 SIZE(fm_matrix_L_RI_metric, 1) =           1
 SIZE(fm_matrix_L_RI_metric, 2) =           1
 SIZE(fm_matrix_L_RI_metric, 1) =           1
 SIZE(fm_matrix_L_RI_metric, 2) =           1
  INTEG_INFO| Range for the minimax approximation:                       20.5543
  INTEG_INFO| Minimax parameters:                    Weights           Abscissas
                                                1.1677977523        0.1449033348
                                                1.2727699812        0.4477108549
                                                1.4945108551        0.7909832787
                                                1.8579212001        1.2067275371
                                                2.4043179310        1.7351303770
                                                3.1981701657        2.4294109101
                                                4.3403237839        3.3630732136
                                                5.9955608989        4.6420029027
                                                8.4564910063        6.4272612066
                                               12.3113932898        8.9844950447
                                               18.9548466779       12.8093280294
                                               32.4935021767       19.0121772703
                                               69.7560485696       30.8804306969
                                              268.0324285876       64.8653783702
  INTEG_INFO| Range for the minimax approximation:                       20.5543
  INTEG_INFO| Gap:                                                        0.8534
  INTEG_INFO| Minimax parameters of the time grid:   Weights           Abscissas
                                                0.0179741569        0.0069862807
                                                0.0427586063        0.0372111356
                                                0.0699342299        0.0932933124
                                                0.1012820528        0.1784625530
                                                0.1393093446        0.2980722773
                                                0.1875732280        0.4604776384
                                                0.2510539693        0.6782708598
                                                0.3365726329        0.9699044187
                                                0.4534892136        1.3618387300
                                                0.6153113068        1.8917682049
                                                0.8436935492        2.6144600767
                                                1.1795118737        3.6144432674
                                                1.7221252797        5.0403623683
                                                2.8623730965        7.2415385843
  INTEG_INFO| Maximum deviation of the imag. time fit:                  3.47E-07
 e_fermi = (a.u. / eV) -0.15202236383306508       -4.1366805422615336     
  MEMORY_INFO| Memory cut:                                                     1
  MEMORY_INFO| Im. time group size for RI functions:                           1
  MEMORY_INFO| Im. time group size for local P matrix:                         1
  SPARSITY_INFO| Eps pgf orb for imaginary time:                        1.00E-30
  SPARSITY_INFO| Eps filter for imaginary time:                         1.00E-30
  SPARSITY_INFO| Second eps filter for imaginary time:                  1.00E-30
  RPA_IM_TIME_INFO| Number of periodic images T for Chi_PQ^T(it):              1
  RPA_IM_TIME_INFO| Number of periodic images T for Chi_PQ^T(it):              1
  RPA_IM_TIME_INFO| Number of periodic images T for Chi_PQ^T(it):              1
  RPA_IM_TIME_INFO| Number of periodic images T for Chi_PQ^T(it):              1
  RPA_IM_TIME_INFO| Number of periodic images T for Chi_PQ^T(it):              1
  RPA_IM_TIME_INFO| Number of periodic images T for Chi_PQ^T(it):              1
  RPA_IM_TIME_INFO| Number of periodic images T for Chi_PQ^T(it):              1
  RPA_IM_TIME_INFO| Number of periodic images T for Chi_PQ^T(it):              1
  RPA_IM_TIME_INFO| Number of periodic images T for Chi_PQ^T(it):              1
  RPA_IM_TIME_INFO| Number of periodic images T for Chi_PQ^T(it):              1
  RPA_IM_TIME_INFO| Number of periodic images T for Chi_PQ^T(it):              1
  RPA_IM_TIME_INFO| Number of periodic images T for Chi_PQ^T(it):              1
  RPA_IM_TIME_INFO| Number of periodic images T for Chi_PQ^T(it):              1
  RPA_IM_TIME_INFO| Number of periodic images T for Chi_PQ^T(it):              1
 after Cholesky dec. mat Q_11           1  0.12366579803215319        1.1609190240747447     
 after Cholesky dec. mat Q_11           2  0.38209279478138636        1.1476281893277129     
 after Cholesky dec. mat Q_11           3  0.67505401807557908        1.1267524499504018     
 after Cholesky dec. mat Q_11           4   1.0298653519183785        1.1045632267997851     
 after Cholesky dec. mat Q_11           5   1.4808236336510725        1.0842374564779984     
 after Cholesky dec. mat Q_11           6   2.0733479969432858        1.0663674063337456     
 after Cholesky dec. mat Q_11           7   2.8701695057202934        1.0509449026161877     
 after Cholesky dec. mat Q_11           8   3.9616548111314374        1.0381587590227401     
 after Cholesky dec. mat Q_11           9   5.4852594483860049        1.0279484069140372     
 after Cholesky dec. mat Q_11          10   7.6676962003483338        1.0197419551461184     
 after Cholesky dec. mat Q_11          11   10.931948358968457        1.0129259592014610     
 after Cholesky dec. mat Q_11          12   16.225686439871641        1.0073524663507472     
 after Cholesky dec. mat Q_11          13   26.354487363168420        1.0032508788153316     
 after Cholesky dec. mat Q_11          14   55.358482896359376        1.0008030176976324     
 iquad            tau               W_11
           1   8.1860578004627968E-003  -9.8238051416421891E-005
           2   4.3601527082221016E-002  -6.9424754968953244E-005
           3  0.10931488166953586       -3.7099322973748960E-005
           4  0.20911051787220145       -1.5356364041983902E-005
           5  0.34926121598024207       -5.6616501270720651E-006
           6  0.53955698714859546       -2.5507958452874862E-006
           7  0.79475255921646804       -1.5320369788751320E-006
           8   1.1364693143566713       -9.7232668681925833E-007
           9   1.5957118020614249       -5.7387158860298897E-007
          10   2.2166478194559294       -2.9833389664642521E-007
          11   3.0634499580733605       -1.2719637266285238E-007
          12   4.2351635715158302       -3.9833962470972069E-008
          13   5.9059604786333342       -7.6487998880108246E-009
          14   8.4851519709457985       -5.9938517581347862E-010
 iquad            tau               vec_Sigma_c_gw_cos_omega              vec_Sigma_c_gw_sin_omega
           1   8.1860578004627968E-003  -4.4930823993906702E-002  -7.7939299988131358E-002
           2   4.3601527082221016E-002  -2.3373921293380971E-002  -5.2177076580617980E-002
           3  0.10931488166953586       -8.2421252328798624E-003  -3.1212050061592903E-002
           4  0.20911051787220145       -1.5087139237572704E-003  -1.8562922753282477E-002
           5  0.34926121598024207        9.2011260836407944E-004  -1.0919438096318460E-002
           6  0.53955698714859546        1.3860731908716495E-003  -6.2050326659240547E-003
           7  0.79475255921646804        1.0882432335808389E-003  -3.3291625809128284E-003
           8   1.1364693143566713        6.5146866754369143E-004  -1.6497221151867895E-003
           9   1.5957118020614249        3.1974479148858540E-004  -7.3442603082742855E-004
          10   2.2166478194559294        1.2734810353486124E-004  -2.7809750117124024E-004
          11   3.0634499580733605        3.7865436463836336E-005  -8.0741642931406632E-005
          12   4.2351635715158302        7.2056798339268195E-006  -1.5234021214932480E-005
          13   5.9059604786333342        6.7877679526862926E-007  -1.4322302090755153E-006
          14   8.4851519709457985        1.7696254953264736E-008  -3.7330454671537511E-008
 REORDERED LEVEL =           4
 jquad         omega                  Sigma 
 REORDERED LEVEL =           2
 jquad         omega                  Sigma 
 REORDERED LEVEL =           1
 jquad         omega                  Sigma 
 REORDERED LEVEL =           5
 jquad         omega                  Sigma 
 REORDERED LEVEL =           6
 jquad         omega                  Sigma 
 REORDERED LEVEL =           7
 jquad         omega                  Sigma 
 REORDERED LEVEL =           3
 jquad         omega                  Sigma 
 REORDERED LEVEL =          11
 jquad         omega                  Sigma 
 REORDERED LEVEL =           8
 jquad         omega                  Sigma 
           1   9.9999999999999998E-013 ( -3.0976128416336089E-002, -7.4403754220981425E-015)
 REORDERED LEVEL =           9
 jquad         omega                  Sigma 
 REORDERED LEVEL =          10
 jquad         omega                  Sigma 
           1   9.9999999999999998E-013 ( -1.8197418379527971E-002, -1.1324660716454493E-014)
           2   3.1415952374491045E-004 ( -1.8197418353895808E-002, -3.5577499641913069E-006)
           3   6.2832059781124877E-004 ( -1.8197418277000360E-002, -7.1155171668666779E-006)
           1   9.9999999999999998E-013 ( -3.2552312048041939E-003, -1.0280031740138442E-014)
           2   3.1415952374491045E-004 ( -3.2552314399353953E-003, -3.2295698107945101E-006)
           3   6.2832059781124877E-004 ( -3.2552321453410264E-003, -6.4591551703162420E-006)
           4   9.4248477255115862E-004 ( -3.2552333210411478E-003, -9.6887716275839021E-006)
           5   1.2566535983779773E-003 ( -3.2552349670395748E-003, -1.2918434732204044E-005)
           6   1.5708286257967215E-003 ( -3.2552370833682422E-003, -1.6148160034656302E-005)
           7   1.8850114054349632E-003 ( -3.2552396700612479E-003, -1.9377963086584919E-005)
           1  -9.9999999999999998E-013 ( -6.7121733932177137E-003,  6.1963077873200565E-014)
           2  -3.1415952374491045E-004 ( -6.7121753102745889E-003,  1.9466290557984709E-005)
           3  -6.2832059781124877E-004 ( -6.7121810615153130E-003,  3.8932674320043881E-005)
           4  -9.4248477255115862E-004 ( -6.7121906470788773E-003,  5.8399244491992740E-005)
           5  -1.2566535983779773E-003 ( -6.7122040670653180E-003,  7.7866094283144947E-005)
           6  -1.5708286257967215E-003 ( -6.7122213217328938E-003,  9.7333316908022473E-005)
           7  -1.8850114054349632E-003 ( -6.7122424113826703E-003,  1.1680100558809849E-004)
           8  -2.1992034880733125E-003 ( -6.7122673364634284E-003,  1.3626925355349944E-004)
           9  -2.5134064246759491E-003 ( -6.7122960973502099E-003,  1.5573815404494679E-004)
          10  -2.8276217664213428E-003 ( -6.7123286945776958E-003,  1.7520780031523762E-004)
          11  -3.1418510647329779E-003 ( -6.7123651287819908E-003,  1.9467828563103057E-004)
          12  -3.4560958713099150E-003 ( -6.7124054005824503E-003,  2.1414970327469668E-004)
           1   9.9999999999999998E-013 ( -1.8197418379515849E-002, -1.1324660716456864E-014)
           2   3.1415952374491045E-004 ( -1.8197418353883690E-002, -3.5577499641920518E-006)
           3   6.2832059781124877E-004 ( -1.8197418276988241E-002, -7.1155171668681644E-006)
           4   9.4248477255115862E-004 ( -1.8197418148829324E-002, -1.0673318846843978E-005)
           5   1.2566535983779773E-003 ( -1.8197417969400470E-002, -1.4231172243595815E-005)
           6   1.5708286257967215E-003 ( -1.8197417738698412E-002, -1.7789094597589516E-005)
           7   1.8850114054349632E-003 ( -1.8197417456717456E-002, -2.1347103150613035E-005)
           8   2.1992034880733125E-003 ( -1.8197417123453848E-002, -2.4905215146103074E-005)
           9   2.5134064246759491E-003 ( -1.8197416738896424E-002, -2.8463447829484669E-005)
          10   2.8276217664213428E-003 ( -1.8197416303037280E-002, -3.2021818448490279E-005)
          11   3.1418510647329779E-003 ( -1.8197415815867944E-002, -3.5580344253494453E-005)
          12   3.4560958713099150E-003 ( -1.8197415277375457E-002, -3.9139042497846590E-005)
           1   9.9999999999999998E-013 ( -3.2669500367664833E-002, -2.3132587301203745E-014)
           2   3.1415952374491045E-004 ( -3.2669500419681967E-002, -7.2673225602618259E-006)
           3   6.2832059781124877E-004 ( -3.2669500575757043E-002, -1.4534680687826535E-005)
           4   9.4248477255115862E-004 ( -3.2669500835912427E-002, -2.1802109950676783E-005)
           5   1.2566535983779773E-003 ( -3.2669501200096367E-002, -2.9069645918171277E-005)
           6   1.5708286257967215E-003 ( -3.2669501668316482E-002, -3.6337324161707162E-005)
           7   1.8850114054349632E-003 ( -3.2669502240561664E-002, -4.3605180255399000E-005)
           8   2.1992034880733125E-003 ( -3.2669502916872838E-002, -5.0873249776737297E-005)
           9   2.5134064246759491E-003 ( -3.2669503697193250E-002, -5.8141568307406781E-005)
          10   2.8276217664213428E-003 ( -3.2669504581526537E-002, -6.5410171433791085E-005)
          11   3.1418510647329779E-003 ( -3.2669505569896909E-002, -7.2679094747683332E-005)
          12   3.4560958713099150E-003 ( -3.2669506662269567E-002, -7.9948373847042950E-005)
           1   9.9999999999999998E-013 ( -3.0976128416335614E-002, -7.4403754220979342E-015)
           2   3.1415952374491045E-004 ( -3.0976128217680206E-002, -2.3374647816754475E-006)
           3   6.2832059781124877E-004 ( -3.0976127621711470E-002, -4.6749409938377646E-006)
           4   9.4248477255115862E-004 ( -3.0976126628418834E-002, -7.0124400671966977E-006)
           5   1.2566535983779773E-003 ( -3.0976125237779397E-002, -9.3499734329061927E-006)
           6   1.5708286257967215E-003 ( -3.0976123449766448E-002, -1.1687552522785012E-005)
           7   1.8850114054349632E-003 ( -3.0976121264344271E-002, -1.4025188769541082E-005)
           8   2.1992034880733125E-003 ( -3.0976118681471352E-002, -1.6362893606989671E-005)
           9   2.5134064246759491E-003 ( -3.0976115701093390E-002, -1.8700678470283411E-005)
          10   2.8276217664213428E-003 ( -3.0976112323152227E-002, -2.1038554796125460E-005)
          11   3.1418510647329779E-003 ( -3.0976108547581444E-002, -2.3376534022994866E-005)
          12   3.4560958713099150E-003 ( -3.0976104374304772E-002, -2.5714627591370035E-005)
           1   9.9999999999999998E-013 ( -1.8197418379527951E-002, -1.1324660716454641E-014)
           2   3.1415952374491045E-004 ( -1.8197418353895791E-002, -3.5577499641913526E-006)
           3   6.2832059781124877E-004 ( -1.8197418277000346E-002, -7.1155171668667702E-006)
           4   9.4248477255115862E-004 ( -1.8197418148841422E-002, -1.0673318846841888E-005)
           5   1.2566535983779773E-003 ( -1.8197417969412568E-002, -1.4231172243593022E-005)
           6   1.5708286257967215E-003 ( -1.8197417738710517E-002, -1.7789094597586023E-005)
           7   1.8850114054349632E-003 ( -1.8197417456729554E-002, -2.1347103150608844E-005)
           8   2.1992034880733125E-003 ( -1.8197417123465950E-002, -2.4905215146098192E-005)
           9   2.5134064246759491E-003 ( -1.8197416738908536E-002, -2.8463447829479082E-005)
           2   3.1415952374491045E-004 ( -3.0976128217680681E-002, -2.3374647816755123E-006)
           3   6.2832059781124877E-004 ( -3.0976127621711935E-002, -4.6749409938378950E-006)
           4   9.4248477255115862E-004 ( -3.0976126628419306E-002, -7.0124400671968959E-006)
           5   1.2566535983779773E-003 ( -3.0976125237779876E-002, -9.3499734329064519E-006)
           6   1.5708286257967215E-003 ( -3.0976123449766926E-002, -1.1687552522785339E-005)
           7   1.8850114054349632E-003 ( -3.0976121264344736E-002, -1.4025188769541475E-005)
           8   2.1992034880733125E-003 ( -3.0976118681471827E-002, -1.6362893606990135E-005)
           9   2.5134064246759491E-003 ( -3.0976115701093869E-002, -1.8700678470283926E-005)
          10   2.8276217664213428E-003 ( -3.0976112323152696E-002, -2.1038554796126050E-005)
          11   3.1418510647329779E-003 ( -3.0976108547581926E-002, -2.3376534022995513E-005)
          12   3.4560958713099150E-003 ( -3.0976104374305251E-002, -2.5714627591370757E-005)
          13   3.7703577381573172E-003 ( -3.0976099803237671E-002, -2.8052846943953224E-005)
          14   4.0846382176174343E-003 ( -3.0976094834290688E-002, -3.0391203525889339E-005)
           1   9.9999999999999998E-013 ( -3.0976128420780024E-002, -7.4403754103260674E-015)
           2   3.1415952374491045E-004 ( -3.0976128222124616E-002, -2.3374647779772046E-006)
           3   6.2832059781124877E-004 ( -3.0976127626155873E-002, -4.6749409864412645E-006)
           4   9.4248477255115862E-004 ( -3.0976126632863251E-002, -7.0124400561019112E-006)
           5   1.2566535983779773E-003 ( -3.0976125242223821E-002, -9.3499734181130672E-006)
           6   1.5708286257967215E-003 ( -3.0976123454210872E-002, -1.1687552504293496E-005)
           7   1.8850114054349632E-003 ( -3.0976121268788698E-002, -1.4025188747351101E-005)
           8   2.1992034880733125E-003 ( -3.0976118685915800E-002, -1.6362893581101136E-005)
           9   2.5134064246759491E-003 ( -3.0976115705537849E-002, -1.8700678440696204E-005)
          10   2.8276217664213428E-003 ( -3.0976112327596693E-002, -2.1038554762839464E-005)
          11   3.1418510647329779E-003 ( -3.0976108552025931E-002, -2.3376533986009948E-005)
          12   3.4560958713099150E-003 ( -3.0976104378749272E-002, -2.5714627550686056E-005)
          13   3.7703577381573172E-003 ( -3.0976099807681696E-002, -2.8052846899569237E-005)
          14   4.0846382176174343E-003 ( -3.0976094838734737E-002, -3.0391203477805871E-005)
           1   9.9999999999999998E-013 ( -3.0976128420839216E-002, -7.4403754103333281E-015)
           2   3.1415952374491045E-004 ( -3.0976128222183815E-002, -2.3374647779794853E-006)
           3   6.2832059781124877E-004 ( -3.0976127626215079E-002, -4.6749409864458249E-006)
           4   9.4248477255115862E-004 ( -3.0976126632922443E-002, -7.0124400561087527E-006)
           5   1.2566535983779773E-003 ( -3.0976125242283020E-002, -9.3499734181221949E-006)
           6   1.5708286257967215E-003 ( -3.0976123454270071E-002, -1.1687552504304902E-005)
           7   1.8850114054349632E-003 ( -3.0976121268847905E-002, -1.4025188747364784E-005)
           8   2.1992034880733125E-003 ( -3.0976118685975003E-002, -1.6362893581117094E-005)
           9   2.5134064246759491E-003 ( -3.0976115705597052E-002, -1.8700678440714460E-005)
          10   2.8276217664213428E-003 ( -3.0976112327655896E-002, -2.1038554762860007E-005)
          11   3.1418510647329779E-003 ( -3.0976108552085130E-002, -2.3376533986032764E-005)
          15   4.3989388623999334E-003 ( -3.0976089471808767E-002, -3.2729708733202434E-005)
          16   4.7132612256129613E-003 ( -3.0976083706795714E-002, -3.5068374116460010E-005)
          17   5.0276068607934994E-003 ( -3.0976077543581112E-002, -3.7407211081390095E-005)
           4   9.4248477255115862E-004 ( -1.8197418148841446E-002, -1.0673318846841752E-005)
           5   1.2566535983779773E-003 ( -1.8197417969412585E-002, -1.4231172243592839E-005)
           6   1.5708286257967215E-003 ( -1.8197417738710538E-002, -1.7789094597585802E-005)
           7   1.8850114054349632E-003 ( -1.8197417456729571E-002, -2.1347103150608576E-005)
           8   2.1992034880733125E-003 ( -1.8197417123465974E-002, -2.4905215146097857E-005)
           9   2.5134064246759491E-003 ( -1.8197416738908550E-002, -2.8463447829478719E-005)
          10   2.8276217664213428E-003 ( -1.8197416303049406E-002, -3.2021818448483584E-005)
           8   2.1992034880733125E-003 ( -3.2552427271784375E-003, -2.2607859441082509E-005)
           9   2.5134064246759491E-003 ( -3.2552462547555915E-003, -2.5837864653027373E-005)
          10   2.8276217664213428E-003 ( -3.2552502528568998E-003, -2.9067994279316528E-005)
          11   3.1418510647329779E-003 ( -3.2552547215619334E-003, -3.2298263879167440E-005)
          12   3.4560958713099150E-003 ( -3.2552596609389632E-003, -3.5528689014434947E-005)
          13   3.7703577381573172E-003 ( -3.2552650710588977E-003, -3.8759285249906635E-005)
          14   4.0846382176174343E-003 ( -3.2552709520338916E-003, -4.1990068153597460E-005)
          15   4.3989388623999334E-003 ( -3.2552773039625665E-003, -4.5221053296972297E-005)
          13  -3.7703577381573172E-003 ( -6.7124495106433918E-003,  2.3362214654607463E-004)
          14  -4.0846382176174343E-003 ( -6.7124974598457262E-003,  2.5309570876422787E-004)
          15  -4.3989388623999334E-003 ( -6.7125492490434837E-003,  2.7257048326887460E-004)
          16  -4.7132612256129613E-003 ( -6.7126048791204575E-003,  2.9204656342251618E-004)
          17  -5.0276068607934994E-003 ( -6.7126643511194522E-003,  3.1152404261212139E-004)
          18  -5.3419773219384233E-003 ( -6.7127276661126372E-003,  3.3100301425057605E-004)
          19  -5.6563741635350740E-003 ( -6.7127948252052082E-003,  3.5048357177897764E-004)
          13   3.7703577381573172E-003 ( -1.8197414687544853E-002, -4.2697930438202756E-005)
          14   4.0846382176174343E-003 ( -1.8197414046365861E-002, -4.6257025334857545E-005)
          15   4.3989388623999334E-003 ( -1.8197413353822859E-002, -4.9816344452062331E-005)
          16   4.7132612256129613E-003 ( -1.8197412609897951E-002, -5.3375905058374745E-005)
          17   5.0276068607934994E-003 ( -1.8197411814574949E-002, -5.6935724426980659E-005)
          18   5.3419773219384233E-003 ( -1.8197410967835479E-002, -6.0495819836022891E-005)
          19   5.6563741635350740E-003 ( -1.8197410069658020E-002, -6.4056208568946183E-005)
          20   5.9707989405921695E-003 ( -1.8197409120022996E-002, -6.7616907914812123E-005)
          13   3.7703577381573172E-003 ( -3.2669507858592378E-002, -8.7218044336689177E-005)
          14   4.0846382176174343E-003 ( -3.2669509158911515E-002, -9.4488141828987947E-005)
          15   4.3989388623999334E-003 ( -3.2669510563207570E-002, -1.0175870194432932E-004)
          16   4.7132612256129613E-003 ( -3.2669512071433017E-002, -1.0902976031206205E-004)
          17   5.0276068607934994E-003 ( -3.2669513683600167E-002, -1.1630135257114339E-004)
          18   5.3419773219384233E-003 ( -3.2669515399693108E-002, -1.2357351437061720E-004)
          19   5.6563741635350740E-003 ( -3.2669517219670187E-002, -1.3084628137067112E-004)
          20   5.9707989405921695E-003 ( -3.2669519143534054E-002, -1.3811968924289534E-004)
          13   3.7703577381573172E-003 ( -3.0976099803237189E-002, -2.8052846943952452E-005)
          14   4.0846382176174343E-003 ( -3.0976094834290212E-002, -3.0391203525888489E-005)
          15   4.3989388623999334E-003 ( -3.0976089467364229E-002, -3.2729708784984675E-005)
          16   4.7132612256129613E-003 ( -3.0976083702351144E-002, -3.5068374171942078E-005)
          17   5.0276068607934994E-003 ( -3.0976077539136521E-002, -3.7407211140572206E-005)
          18   5.3419773219384233E-003 ( -3.0976070977597889E-002, -3.9746231148019509E-005)
          19   5.6563741635350740E-003 ( -3.0976064017602820E-002, -4.2085445654991183E-005)
          20   5.9707989405921695E-003 ( -3.0976056659013762E-002, -4.4424866125969136E-005)
           1   9.9999999999999998E-013 ( -3.0976128420839046E-002, -7.4403754103332382E-015)
           2   3.1415952374491045E-004 ( -3.0976128222183635E-002, -2.3374647779794561E-006)
           3   6.2832059781124877E-004 ( -3.0976127626214895E-002, -4.6749409864457673E-006)
           4   9.4248477255115862E-004 ( -3.0976126632922270E-002, -7.0124400561086646E-006)
           5   1.2566535983779773E-003 ( -3.0976125242282836E-002, -9.3499734181220797E-006)
           6   1.5708286257967215E-003 ( -3.0976123454269887E-002, -1.1687552504304753E-005)
           7   1.8850114054349632E-003 ( -3.0976121268847714E-002, -1.4025188747364611E-005)
           8   2.1992034880733125E-003 ( -3.0976118685974819E-002, -1.6362893581116887E-005)
           9   2.5134064246759491E-003 ( -3.0976115705596864E-002, -1.8700678440714223E-005)
          10   2.8276217664213428E-003 ( -3.0976112327655708E-002, -2.1038554762859739E-005)
          11   3.1418510647329779E-003 ( -3.0976108552084942E-002, -2.3376533986032469E-005)
          10   2.8276217664213428E-003 ( -1.8197416303049385E-002, -3.2021818448483984E-005)
          11   3.1418510647329779E-003 ( -1.8197415815880042E-002, -3.5580344253487460E-005)
          12   3.4560958713099150E-003 ( -1.8197415277387548E-002, -3.9139042497838906E-005)
          13   3.7703577381573172E-003 ( -1.8197414687556947E-002, -4.2697930438194381E-005)
          14   4.0846382176174343E-003 ( -1.8197414046377963E-002, -4.6257025334848444E-005)
          15   4.3989388623999334E-003 ( -1.8197413353834953E-002, -4.9816344452052546E-005)
          16   4.7132612256129613E-003 ( -1.8197412609910049E-002, -5.3375905058364275E-005)
          17   5.0276068607934994E-003 ( -1.8197411814587047E-002, -5.6935724426969471E-005)
          18   5.3419773219384233E-003 ( -1.8197410967847581E-002, -6.0495819836011005E-005)
          19   5.6563741635350740E-003 ( -1.8197410069670114E-002, -6.4056208568933593E-005)
          20   5.9707989405921695E-003 ( -1.8197409120035091E-002, -6.7616907914798814E-005)
          15   4.3989388623999334E-003 ( -3.0976089467364704E-002, -3.2729708784985590E-005)
          16   4.7132612256129613E-003 ( -3.0976083702351626E-002, -3.5068374171943074E-005)
          17   5.0276068607934994E-003 ( -3.0976077539137000E-002, -3.7407211140573249E-005)
          18   5.3419773219384233E-003 ( -3.0976070977598375E-002, -3.9746231148020628E-005)
          19   5.6563741635350740E-003 ( -3.0976064017603298E-002, -4.2085445654992355E-005)
          20   5.9707989405921695E-003 ( -3.0976056659014234E-002, -4.4424866125970383E-005)
          21   6.2852532086702505E-003 ( -3.0976048901683911E-002, -4.6764504029441896E-005)
          22   6.5997385239130379E-003 ( -3.0976040745457324E-002, -4.9104370838119804E-005)
          23   6.9142564430779594E-003 ( -3.0976032190171466E-002, -5.1444478029187873E-005)
          24   7.2288085235669474E-003 ( -3.0976023235656323E-002, -5.3784837084472639E-005)
          25   7.5433963234575897E-003 ( -3.0976013881731979E-002, -5.6125459490724233E-005)
          12   3.4560958713099150E-003 ( -3.0976104378808472E-002, -2.5714627550711152E-005)
          13   3.7703577381573172E-003 ( -3.0976099807740902E-002, -2.8052846899596606E-005)
          14   4.0846382176174343E-003 ( -3.0976094838793940E-002, -3.0391203477835510E-005)
          15   4.3989388623999334E-003 ( -3.0976089471867967E-002, -3.2729708733234363E-005)
[...]
         873 -0.98127800108974561      ( -1.8132966550721406E-002,  4.7096596435184178E-002)
         874 -0.98921599460618381      ( -1.8250875923213616E-002,  4.7317144550733707E-002)
         875 -0.99727829908815668      ( -1.8370154451000577E-002,  4.7538637836067328E-002)
 
 n_level_gw =           5
 AFTER get_sigma_c_newton_pade
 vec_gw_energ(n_level_gw) = -0.96238461914562290     
 Eigenval_scf(n_level_gw_ref) =   22.726574891238336     
 nparam_pade =           8
 level_energ_GW =   1.0501966181211841     
 
 vec_gw_energ(n_level_gw) =  -3.6594496758736428     
 Eigenval_scf(n_level_gw_ref) =   51.489709597505289     
 nparam_pade =           8
 level_energ_GW =   2.0875612201607745     
 
 coeff_pade = ( -3.0976128416335614E-002, -7.4403754220979342E-015) (-0.24019574191166115     , -2.9077136357184917E-004) ( -3.1068472588404752E-002, -4.9674226181631656E-004) (-0.28866845950417336     , 0.45864828993687878     ) ( -1.0401178831480227     ,  2.0722145965500403     ) ( -1.0143025945267179     , -3.7966267624220018     ) ( 0.43121964612903479     , 0.68129071097478655     ) (-0.30247258683509209     , 0.16639771147171170     )
 sigma_c_pade = ( -9.3568813855297908     , -3.0434342873768845     )
 z_value(n_level_gw) =  0.53617222823511479     
 m_value(n_level_gw) = -0.86507235425385354     
 level_energ_GW =   3.5171499961688593     
 
 
 n_level_gw =           7
 AFTER get_sigma_c_newton_pade
 vec_gw_energ(n_level_gw) =  -9.8850756146732337     
 Eigenval_scf(n_level_gw_ref) =   95.109276861572638     
 nparam_pade =           8
 n_level_gw =           3
 AFTER get_sigma_c_newton_pade
 vec_gw_energ(n_level_gw) = -0.96238461916418261     
 Eigenval_scf(n_level_gw_ref) =   22.726574891222175     
 nparam_pade =           8
 level_energ_GW =   1.0501966181223967     
 
         870  0.95818141405543900      ( -2.9286548259589103E-002, -6.5545475563636817E-003)
         871  0.96576347043855215      ( -2.9262451359103655E-002, -6.5981439373189342E-003)
         872  0.97346142716965245      ( -2.9237870854365060E-002, -6.6422341933954389E-003)
         873  0.98127800108974561      ( -2.9212794380376873E-002, -6.6868255558678782E-003)
         874  0.98921599460618381      ( -2.9187209195437686E-002, -6.7319253598625457E-003)
         875  0.99727829908815668      ( -2.9161102167590974E-002, -6.7775410446862597E-003)
 
 sigma_c_pade = ( -9.3568812619246629     , -3.0434342807327384     )
 z_value(n_level_gw) =  0.53617223597423636     
 m_value(n_level_gw) = -0.86507232733335915     
 level_energ_GW =   3.5171499989204991     
 
 
 n_level_gw =           8
 AFTER get_sigma_c_newton_pade
 vec_gw_energ(n_level_gw) =  -9.8850755424473231     
 Eigenval_scf(n_level_gw_ref) =   95.109276861572766     
 nparam_pade =           8
 level_energ_GW =   3.5171499989204991     
 nparam_pade =           8
 level_energ_GW =   1.0501966181222100     
 
 
 n_level_gw =           1
 AFTER evaluate_pade_function/get_z_and_m_value_pade
 energy_val = -0.42671826086002396     
 nparam_pade =           8
 omega_points_pade = ( -0.0000000000000000     , -9.9999999999999998E-013) ( -0.0000000000000000     , -3.9782473475931619E-002) ( -0.0000000000000000     , -8.2842712474619024E-002) ( -0.0000000000000000     ,-0.13363572758385980     ) ( -0.0000000000000000     ,-0.20000000000000004     ) ( -0.0000000000000000     ,-0.29932115253309782     ) ( -0.0000000000000000     ,-0.48284271247461907     ) ( -0.0000000000000000     ,-0.99727829908815668     )
 level_energ_GW =   3.5171499961688593     
 
 n_level_gw =          10
 AFTER evaluate_pade_function/get_z_and_m_value_pade
 energy_val =   3.6472734476092517     
 nparam_pade =           8
 omega_points_pade = (  0.0000000000000000     ,  9.9999999999999998E-013) (  0.0000000000000000     ,  3.9782473475931619E-002) (  0.0000000000000000     ,  8.2842712474619024E-002) (  0.0000000000000000     , 0.13363572758385980     ) (  0.0000000000000000     , 0.20000000000000004     ) (  0.0000000000000000     , 0.29932115253309782     ) (  0.0000000000000000     , 0.48284271247461907     ) (  0.0000000000000000     , 0.99727829908815668     )
 
 coeff_pade = ( -6.7121733932177137E-003,  6.1963077873200565E-014) ( -8.0667908444231688     , -3.0622256174946836     ) (  8.3310392648955975     ,  3.1818473260989921     ) (  1.9819216937543249E-002,  7.3324864799672830E-003) (-0.12703842138612759     , -1.3579335281459919     ) ( -2.4975910567170030     ,  1.9356421248024493     ) ( 0.42875004470651884     ,-0.18693142137182081     ) (-0.58017809650070429     , 0.62391753547718232     )
 sigma_c_pade = ( 0.68736505307689177     ,  8.0950788925279705E-004)
 z_value(n_level_gw) =  0.91361508213855136     
 m_value(n_level_gw) =  -9.4552858802683604E-002
 level_energ_GW = -0.87029491560629280     
 
 coeff_pade = ( -3.0976128420839216E-002, -7.4403754103333281E-015) (-0.24019574149767586     , -2.9077136234120673E-004) ( -3.1068472572336733E-002, -4.9674203982308363E-004) (-0.28866842219246142     , 0.45864832701017311     ) ( -1.0401182110655198     ,  2.0722146191077160     ) ( -1.0143023766129526     , -3.7966266782469229     ) ( 0.43121972324801638     , 0.68129059984330209     ) (-0.30247261511880769     , 0.16639772706809952     )
 sigma_c_pade = ( -9.3568812000313653     , -3.0434338233908473     )
 z_value(n_level_gw) =  0.53617223212803011     
 m_value(n_level_gw) = -0.86507234071236760     
 level_energ_GW =   3.5171500076749278     
 
 
 n_level_gw =           1
 AFTER get_sigma_c_newton_pade
 vec_gw_energ(n_level_gw) =   1.6254207687423576     
 Eigenval_scf(n_level_gw_ref) =  -15.748111138523646     
 nparam_pade =           8
 level_energ_GW = -0.87029491560629280     
 
 n_level_gw =          10
 AFTER get_sigma_c_newton_pade
 vec_gw_energ(n_level_gw) =  -9.8850753621616114     
 
 Eigenval_scf(n_level_gw_ref) =   95.109277240633801     
 nparam_pade =           8
 level_energ_GW =   3.5171500076749278     
 
  
  GW quasiparticle energies
  -------------------------
   
  The GW quasiparticle energies are calculated according to: 
  E_GW = E_SCF + Z * ( Sigc(E_SCF) + Sigx - vxc )
   
  The energy unit of the following table is eV.  Sigc_fit is a very conservative
  estimate of the statistical error of the fitting.
   
            MO      E_SCF       Sigc   Sigc_fit   Sigx-vxc          Z       E_GW
     1 ( occ )    -15.748      1.625      0.000     -9.371      1.000    -23.494
     2 ( vir )      7.475     -0.220      0.000      3.791      1.000     11.046
     3 ( vir )     22.727     -0.962      0.000      6.805      1.000     28.569
     4 ( vir )     22.727     -0.962      0.000      6.805      1.000     28.569
     5 ( vir )     22.727     -0.962      0.000      6.805      1.000     28.569
     6 ( vir )     51.490     -3.660      0.000      8.899      1.000     56.730
     7 ( vir )     95.111     -9.885      0.000     10.468      1.000     95.694
     8 ( vir )     95.111     -9.885      0.000     10.468      1.000     95.694
     9 ( vir )     95.111     -9.885      0.000     10.468      1.000     95.694
    10 ( vir )     95.111     -9.885      0.000     10.468      1.000     95.694
    11 ( vir )     95.111     -9.885      0.000     10.468      1.000     95.694
   
  GW HOMO-LUMO gap (eV)                                                    34.54
  

  Total RI-RPA Time=                                                   37.324174
  RI-RPA energy  =                                             -0.08051453514339

  Total EXX Time=                                                       1.139114
  EXX energy  =                                                -1.01391859232301

 ENERGY| Total FORCE_EVAL ( QS ) energy (a.u.):               -2.940678678106912


 -------------------------------------------------------------------------------
 -                                                                             -
 -                                DBCSR STATISTICS                             -
 -                                                                             -
 -------------------------------------------------------------------------------
 COUNTER                                    TOTAL       BLAS       SMM       ACC
 flops    30 x     1 x    30                 1800     100.0%      0.0%      0.0%
 flops    30 x    30 x    30               108000     100.0%      0.0%      0.0%
 flops    91 x    91 x    91             21099988     100.0%      0.0%      0.0%
 flops    30 x    90 x    30             23490000     100.0%      0.0%      0.0%
 flops    91 x    30 x    30             50450400     100.0%      0.0%      0.0%
 flops    91 x    30 x    91             76516440     100.0%      0.0%      0.0%
 flops    91 x    91 x    35             97384560     100.0%      0.0%      0.0%
 flops    91 x    91 x    40            111296640     100.0%      0.0%      0.0%
 flops    30 x   120 x    30            119016000     100.0%      0.0%      0.0%
 flops inhomo. stacks                        3600     100.0%      0.0%      0.0%
 flops total                       499.367428E+06     100.0%      0.0%      0.0%
 flops max/rank                    163.718948E+06     100.0%      0.0%      0.0%
 matmuls inhomo. stacks                         2     100.0%      0.0%      0.0%
 matmuls total                               1513     100.0%      0.0%      0.0%
 number of processed stacks                  1513     100.0%      0.0%      0.0%
 average stack size                                     1.0       0.0       0.0
 marketing flops                   499.297312E+06
 -------------------------------------------------------------------------------
 # multiplications                            524
 max memory usage/rank             408.317952E+06
 # max total images/rank                        3
 # max 3D layers                                1
 # MPI messages exchanged                  219336
 MPI messages size (bytes):
  total size                       108.962976E+06
  min size                           0.000000E+00
  max size                          66.248000E+03
  average size                     496.785645E+00
 MPI breakdown and total messages size (bytes):
             size <=      128              215488                        0
       128 < size <=     8192                 964                  6808560
      8192 < size <=    32768                2002                 43723680
     32768 < size <=   131072                 882                 58430736
    131072 < size <=  4194304                   0                        0
   4194304 < size <= 16777216                   0                        0
  16777216 < size                               0                        0
 -------------------------------------------------------------------------------

 *** WARNING in dbcsr_mm.F:278 :: Using a non-square number of MPI ranks ***
 *** might lead to poor performance. Used ranks: 24 Suggested: 25 49     ***

 -------------------------------------------------------------------------------
 -                                                                             -
 -                      DBCSR MESSAGE PASSING PERFORMANCE                      -
 -                                                                             -
 -------------------------------------------------------------------------------

 ROUTINE             CALLS      AVE VOLUME [Bytes]
 MP_Group               26
 MP_Bcast               10                     12.
 MP_Allreduce         2950                      8.
 MP_Alltoall          1840                   5101.
 MP_Wait             27968
 MP_ISend            20374                   1254.
 MP_IRecv            20374                     56.
 MP_Memory           39036
 -------------------------------------------------------------------------------


 MEMORY| Estimated peak process memory [MiB]                                 390

 -------------------------------------------------------------------------------
 ----                             MULTIGRID INFO                            ----
 -------------------------------------------------------------------------------
 count for grid        1:          18026          cutoff [a.u.]          200.00
 count for grid        2:           3194          cutoff [a.u.]           66.67
 count for grid        3:            965          cutoff [a.u.]           22.22
 count for grid        4:             96          cutoff [a.u.]            7.41
 total gridlevel count  :          22281

 -------------------------------------------------------------------------------
 -                                                                             -
 -                         MESSAGE PASSING PERFORMANCE                         -
 -                                                                             -
 -------------------------------------------------------------------------------

 ROUTINE             CALLS      AVE VOLUME [Bytes]
 MP_Group                5
 MP_Bcast              112                2648566.
 MP_Allreduce          335                   7299.
 MP_Sync                72
 MP_Alltoall           123                3767925.
 MP_ISendRecv          276                  51376.
 MP_Wait               940
 MP_comm_split          10
 MP_ISend             3188                  46146.
 MP_IRecv             2546                  64564.
 -------------------------------------------------------------------------------


 -------------------------------------------------------------------------------
 -                                                                             -
 -                           R E F E R E N C E S                               -
 -                                                                             -
 -------------------------------------------------------------------------------
 
 CP2K version 7.0 (Development Version), the CP2K developers group (2018).
 CP2K is freely available from https://www.cp2k.org/ .

 Schuett, Ole; Messmer, Peter; Hutter, Juerg; VandeVondele, Joost. 
 Electronic Structure Calculations on Graphics Processing Units, John Wiley & Sons, Ltd, 173-190 (2016). 
 GPU-Accelerated Sparse Matrix-Matrix Multiplication for Linear Scaling Density Functional Theory.
 https://dx.doi.org/10.1002/9781118670712.ch8


 Del Ben, M; Schuett, O; Wentz, T; Messmer, P; Hutter, J;
 VandeVondele, J. 
 COMPUTER PHYSICS COMMUNICATIONS, 187, 120-129 (2015). 
 Enabling simulation at the fifth rung of DFT: Large scale RPA
 calculations with excellent time to solution.
 https://dx.doi.org/10.1016/j.cpc.2014.10.021


 Borstnik, U; VandeVondele, J; Weber, V; Hutter, J. 
 PARALLEL COMPUTING, 40 (5-6), 47-58 (2014). 
 Sparse matrix multiplication: The distributed block-compressed sparse
 row library.
 https://dx.doi.org/10.1016/j.parco.2014.03.012


 Hutter, J; Iannuzzi, M; Schiffmann, F; VandeVondele, J. 
 WILEY INTERDISCIPLINARY REVIEWS-COMPUTATIONAL MOLECULAR SCIENCE, 4 (1), 15-25 (2014). 
 CP2K: atomistic simulations of condensed matter systems.
 https://dx.doi.org/10.1002/wcms.1159


 Del Ben, M; Hutter, J; VandeVondele, J. 
 JOURNAL OF CHEMICAL THEORY AND COMPUTATION, 9 (6), 2654-2671 (2013). 
 Electron Correlation in the Condensed Phase from a Resolution of
 Identity Approach Based on the Gaussian and Plane Waves Scheme.
 https://dx.doi.org/10.1021/ct4002202


 Del Ben, M; Hutter, J; VandeVondele, J. 
 JOURNAL OF CHEMICAL THEORY AND COMPUTATION, 8 (11), 4177-4188 (2012). 
 Second-Order Moller-Plesset Perturbation Theory in the Condensed Phase:
 An Efficient and Massively Parallel Gaussian and Plane Waves Approach.
 https://dx.doi.org/10.1021/ct300531w


 Guidon, M; Hutter, J; VandeVondele, J. 
 JOURNAL OF CHEMICAL THEORY AND COMPUTATION, 5 (11), 3010-3021 (2009). 
 Robust Periodic Hartree-Fock Exchange for Large-Scale Simulations Using
 Gaussian Basis Sets.
 https://dx.doi.org/10.1021/ct900494g


 Guidon, M; Schiffmann, F; Hutter, J; VandeVondele, J. 
 JOURNAL OF CHEMICAL PHYSICS, 128 (21), 214104 (2008). 
 Ab initio molecular dynamics using hybrid density functionals.
 https://dx.doi.org/10.1063/1.2931945


 Frigo, M; Johnson, SG. 
 PROCEEDINGS OF THE IEEE, 93 (2), 216-231 (2005). 
 The design and implementation of FFTW3.
 https://dx.doi.org/10.1109/JPROC.2004.840301


 Lippert, G; Hutter, J; Parrinello, M. 
 THEORETICAL CHEMISTRY ACCOUNTS, 103 (2), 124-140 (1999). 
 The Gaussian and augmented-plane-wave density functional method for ab
 initio molecular dynamics simulations.
 https://dx.doi.org/10.1007/s002140050523


 Krack, M; Parrinello, M. 
 PHYSICAL CHEMISTRY CHEMICAL PHYSICS, 2 (10), 2105-2112 (2000). 
 All-electron ab-initio molecular dynamics.
 https://dx.doi.org/10.1039/b001167n


 Martyna, GJ; Tuckerman, ME. 
 JOURNAL OF CHEMICAL PHYSICS, 110 (6), 2810-2821 (1999). 
 A reciprocal space based method for treating long range interactions in
 ab initio and force-field-based calculations in clusters.
 https://dx.doi.org/10.1063/1.477923


 Perdew, JP; Burke, K; Ernzerhof, M. 
 PHYSICAL REVIEW LETTERS, 77 (18), 3865-3868 (1996). 
 Generalized gradient approximation made simple.
 https://dx.doi.org/10.1103/PhysRevLett.77.3865


 -------------------------------------------------------------------------------
 -                                                                             -
 -                                T I M I N G                                  -
 -                                                                             -
 -------------------------------------------------------------------------------
 SUBROUTINE                       CALLS  ASD         SELF TIME        TOTAL TIME
                                MAXIMUM       AVERAGE  MAXIMUM  AVERAGE  MAXIMUM
 CP2K                                 1  1.0    0.010    0.013   41.341   41.342
 qs_energies                          1  2.0    0.000    0.000   40.644   40.644
 mp2_main                             1  3.0    0.000    0.000   38.466   38.467
 mp2_gpw_main                         1  4.0    0.000    0.000   37.324   37.324
 rpa_ri_compute_en                    1  5.0    0.000    0.000   37.308   37.308
 rpa_num_int                          1  6.0    0.001    0.001   37.308   37.308
 get_l_sq_wghts_sin_tf_t_to_w         2  7.0   17.258   18.623   18.624   18.625
 get_l_sq_wghts_cos_tf_t_to_w         2  7.0   17.333   17.704   17.774   17.774
 mp_sum_dm                           14  7.8    1.954    3.928    1.954    3.928
 qs_ks_build_kohn_sham_matrix         2  6.0    0.001    0.001    1.944    1.944
 scf_env_do_scf                       1  3.0    0.000    0.000    1.676    1.676
 scf_env_do_scf_inner_loop            1  4.0    0.000    0.000    1.676    1.676
 pw_transfer                         39  8.7    0.002    0.003    1.465    1.498
 fft_wrap_pw1pw2                     31 10.0    0.000    0.000    1.432    1.462
 qs_ks_update_qs_env                  1  5.0    0.000    0.000    1.425    1.425
 rebuild_ks_matrix                    1  6.0    0.000    0.000    1.425    1.425
 fft_wrap_pw1pw2_200                 18 10.9    0.099    0.115    1.152    1.185
 compute_vec_Sigma_x_minus_vxc_       1  4.0    0.000    0.000    1.139    1.139
 fft3d_ps                            31 12.0    0.568    0.624    1.056    1.097
 -------------------------------------------------------------------------------

 The number of warnings for this run is : 1
 
 -------------------------------------------------------------------------------
  **** **** ******  **  PROGRAM ENDED AT                 2019-06-07 02:54:03.680
 ***** ** ***  *** **   PROGRAM RAN ON                                    tcopt4
 **    ****   ******    PROGRAM RAN BY                                   wilhelm
 ***** **    ** ** **   PROGRAM PROCESS ID                                 50172
  **** **  *******  **  PROGRAM STOPPED IN /data/wilhelm/2_job_test/11_GW100/3_c
                                           alcs/01_He
