 DBCSR| CPU Multiplication driver                                           BLAS
 DBCSR| Multrec recursion limit                                              512
 DBCSR| Multiplication stack size                                           1000
 DBCSR| Maximum elements for images                                    UNLIMITED
 DBCSR| Multiplicative factor virtual images                                   1
 DBCSR| Use multiplication densification                                       T
 DBCSR| Multiplication size stacks                                             3
 DBCSR| Number of 3D layers                                               SINGLE
 DBCSR| Use MPI memory allocation                                              T
 DBCSR| Use RMA algorithm                                                      F
 DBCSR| Use Communication thread                                               T
 DBCSR| Communication thread load                                             87


  **** **** ******  **  PROGRAM STARTED AT               2019-05-31 10:40:53.084
 ***** ** ***  *** **   PROGRAM STARTED ON                                tcopt4
 **    ****   ******    PROGRAM STARTED BY                               wilhelm
 ***** **    ** ** **   PROGRAM PROCESS ID                                 42383
  **** **  *******  **  PROGRAM STARTED IN /data/wilhelm/2_job_test/11_GW100/3_c
                                           alcs/02_Ne

 CP2K| version string:                    CP2K version 7.0 (Development Version)
 CP2K| source code revision number:                                  git:026fb12
 CP2K| cp2kflags: libint fftw3 libxc pexsi elpa=201705 parallel mpi3 scalapack q
 CP2K|            uip libderiv_max_am1=5 libint_max_am=6
 CP2K| is freely available from                            https://www.cp2k.org/
 CP2K| Program compiled at                         Sat May 11 13:15:02 CEST 2019
 CP2K| Program compiled on                                                tcopt4
 CP2K| Program compiled for                            local_valgrind_March_2019
 CP2K| Data directory path              /data/wilhelm/1_git_repository/cp2k/data
 CP2K| Input file name                                                    GW.inp

 GLOBAL| Force Environment number                                              1
 GLOBAL| Basis set file name                              BASIS_def2_QZVP_RI_ALL
 GLOBAL| Potential file name                                           POTENTIAL
 GLOBAL| MM Potential file name                                     MM_POTENTIAL
 GLOBAL| Coordinate file name                                          02_Ne.xyz
 GLOBAL| Method name                                                        CP2K
 GLOBAL| Project name                                                   ALL_ELEC
 GLOBAL| Preferred FFT library                                             FFTW3
 GLOBAL| Preferred diagonalization lib.                                       SL
 GLOBAL| Run type                                                         ENERGY
 GLOBAL| All-to-all communication in single precision                          F
 GLOBAL| FFTs using library dependent lengths                                  F
 GLOBAL| Global print level                                               MEDIUM
 GLOBAL| MPI I/O enabled                                                       T
 GLOBAL| Total number of message passing processes                            24
 GLOBAL| Number of threads for this process                                    1
 GLOBAL| This output is from process                                           0
 GLOBAL| CPU model name :  Intel(R) Xeon(R) CPU E5-2697 v3 @ 2.60GHz

 MEMORY| system memory details [Kb]
 MEMORY|                        rank 0           min           max       average
 MEMORY| MemTotal            396954008     396954008     396954008     396954008
 MEMORY| MemFree             168349696     168349696     168349696     168349696
 MEMORY| Buffers                305776        305776        305776        305776
 MEMORY| Cached               14918796      14918796      14918796      14918796
 MEMORY| Slab                   573460        573460        573460        573460
 MEMORY| SReclaimable           434888        434888        434888        434888
 MEMORY| MemLikelyFree       184009156     184009156     184009156     184009156


 *** Fundamental physical constants (SI units) ***

 *** Literature: B. J. Mohr and B. N. Taylor,
 ***             CODATA recommended values of the fundamental physical
 ***             constants: 2006, Web Version 5.1
 ***             http://physics.nist.gov/constants

 Speed of light in vacuum [m/s]                             2.99792458000000E+08
 Magnetic constant or permeability of vacuum [N/A**2]       1.25663706143592E-06
 Electric constant or permittivity of vacuum [F/m]          8.85418781762039E-12
 Planck constant (h) [J*s]                                  6.62606896000000E-34
 Planck constant (h-bar) [J*s]                              1.05457162825177E-34
 Elementary charge [C]                                      1.60217648700000E-19
 Electron mass [kg]                                         9.10938215000000E-31
 Electron g factor [ ]                                     -2.00231930436220E+00
 Proton mass [kg]                                           1.67262163700000E-27
 Fine-structure constant                                    7.29735253760000E-03
 Rydberg constant [1/m]                                     1.09737315685270E+07
 Avogadro constant [1/mol]                                  6.02214179000000E+23
 Boltzmann constant [J/K]                                   1.38065040000000E-23
 Atomic mass unit [kg]                                      1.66053878200000E-27
 Bohr radius [m]                                            5.29177208590000E-11

 *** Conversion factors ***

 [u] -> [a.u.]                                              1.82288848426455E+03
 [Angstrom] -> [Bohr] = [a.u.]                              1.88972613288564E+00
 [a.u.] = [Bohr] -> [Angstrom]                              5.29177208590000E-01
 [a.u.] -> [s]                                              2.41888432650478E-17
 [a.u.] -> [fs]                                             2.41888432650478E-02
 [a.u.] -> [J]                                              4.35974393937059E-18
 [a.u.] -> [N]                                              8.23872205491840E-08
 [a.u.] -> [K]                                              3.15774647902944E+05
 [a.u.] -> [kJ/mol]                                         2.62549961709828E+03
 [a.u.] -> [kcal/mol]                                       6.27509468713739E+02
 [a.u.] -> [Pa]                                             2.94210107994716E+13
 [a.u.] -> [bar]                                            2.94210107994716E+08
 [a.u.] -> [atm]                                            2.90362800883016E+08
 [a.u.] -> [eV]                                             2.72113838565563E+01
 [a.u.] -> [Hz]                                             6.57968392072181E+15
 [a.u.] -> [1/cm] (wave numbers)                            2.19474631370540E+05
 [a.u./Bohr**2] -> [1/cm]                                   5.14048714338585E+03
 

 CELL_TOP| Volume [angstrom^3]:                                         4096.000
 CELL_TOP| Vector a [angstrom    16.000     0.000     0.000    |a| =      16.000
 CELL_TOP| Vector b [angstrom     0.000    16.000     0.000    |b| =      16.000
 CELL_TOP| Vector c [angstrom     0.000     0.000    16.000    |c| =      16.000
 CELL_TOP| Angle (b,c), alpha [degree]:                                   90.000
 CELL_TOP| Angle (a,c), beta  [degree]:                                   90.000
 CELL_TOP| Angle (a,b), gamma [degree]:                                   90.000
 CELL_TOP| Numerically orthorhombic:                                         YES

 GENERATE|  Preliminary Number of Bonds generated:                             0
 GENERATE|  Achieved consistency in connectivity generation.

 CELL| Volume [angstrom^3]:                                             4096.000
 CELL| Vector a [angstrom]:      16.000     0.000     0.000    |a| =      16.000
 CELL| Vector b [angstrom]:       0.000    16.000     0.000    |b| =      16.000
 CELL| Vector c [angstrom]:       0.000     0.000    16.000    |c| =      16.000
 CELL| Angle (b,c), alpha [degree]:                                       90.000
 CELL| Angle (a,c), beta  [degree]:                                       90.000
 CELL| Angle (a,b), gamma [degree]:                                       90.000
 CELL| Numerically orthorhombic:                                             YES

 CELL_REF| Volume [angstrom^3]:                                         4096.000
 CELL_REF| Vector a [angstrom    16.000     0.000     0.000    |a| =      16.000
 CELL_REF| Vector b [angstrom     0.000    16.000     0.000    |b| =      16.000
 CELL_REF| Vector c [angstrom     0.000     0.000    16.000    |c| =      16.000
 CELL_REF| Angle (b,c), alpha [degree]:                                   90.000
 CELL_REF| Angle (a,c), beta  [degree]:                                   90.000
 CELL_REF| Angle (a,b), gamma [degree]:                                   90.000
 CELL_REF| Numerically orthorhombic:                                         YES

 *******************************************************************************
 *******************************************************************************
 **                                                                           **
 **     #####                         ##              ##                      **
 **    ##   ##            ##          ##              ##                      **
 **   ##     ##                       ##            ######                    **
 **   ##     ##  ##   ##  ##   #####  ##  ##   ####   ##    #####    #####    **
 **   ##     ##  ##   ##  ##  ##      ## ##   ##      ##   ##   ##  ##   ##   **
 **   ##  ## ##  ##   ##  ##  ##      ####     ###    ##   ######   ######    **
 **    ##  ###   ##   ##  ##  ##      ## ##      ##   ##   ##       ##        **
 **     #######   #####   ##   #####  ##  ##  ####    ##    #####   ##        **
 **           ##                                                    ##        **
 **                                                                           **
 **                                                ... make the atoms dance   **
 **                                                                           **
 **            Copyright (C) by CP2K developers group (2000 - 2019)           **
 **                                                                           **
 *******************************************************************************

 DFT| Spin restricted Kohn-Sham (RKS) calculation                            RKS
 DFT| Multiplicity                                                             1
 DFT| Number of spin states                                                    1
 DFT| Charge                                                                   0
 DFT| Self-interaction correction (SIC)                                       NO
 DFT| Cutoffs: density                                              1.000000E-10
 DFT|          gradient                                             1.000000E-10
 DFT|          tau                                                  1.000000E-10
 DFT|          cutoff_smoothing_range                               0.000000E+00
 DFT| XC density smoothing                                                  NONE
 DFT| XC derivatives                                                          PW
 FUNCTIONAL| ROUTINE=NEW
 FUNCTIONAL| PBE:
 FUNCTIONAL| J.P.Perdew, K.Burke, M.Ernzerhof, Phys. Rev. Letter, vol. 77, n 18,
 FUNCTIONAL|  pp. 3865-3868, (1996){spin unpolarized}                           

 QS| Method:                                                                GAPW
 QS| Density plane wave grid type                        NON-SPHERICAL FULLSPACE
 QS| Number of grid levels:                                                    4
 QS| Density cutoff [a.u.]:                                                200.0
 QS| Multi grid cutoff [a.u.]: 1) grid level                               200.0
 QS|                           2) grid level                                66.7
 QS|                           3) grid level                                22.2
 QS|                           4) grid level                                 7.4
 QS| Grid level progression factor:                                          3.0
 QS| Relative density cutoff [a.u.]:                                        25.0
 QS| Consistent realspace mapping and integration 
 QS| Interaction thresholds: eps_pgf_orb:                                1.0E-05
 QS|                         eps_filter_matrix:                          0.0E+00
 QS|                         eps_core_charge:                            1.0E-12
 QS|                         eps_rho_gspace:                             1.0E-10
 QS|                         eps_rho_rspace:                             1.0E-10
 QS|                         eps_gvg_rspace:                             1.0E-05
 QS|                         eps_ppl:                                    1.0E-02
 QS|                         eps_ppnl:                                   1.0E-07
 QS| GAPW|                   eps_fit:                                    1.0E-04
 QS| GAPW|                   eps_iso:                                    1.0E-12
 QS| GAPW|                   eps_svd:                                    1.0E-08
 QS| GAPW|                   eps_cpc:                                    1.0E-10
 QS| GAPW|   atom-r-grid: quadrature:                 GC_LOG                        
 QS| GAPW|      atom-s-grid:  max l :                                          8
 QS| GAPW|      max_l_rho0 :                                                   2


 ATOMIC KIND INFORMATION

  1. Atomic kind: Ne                                    Number of atoms:       1

     Orbital Basis Set                                                 def2-QZVP

       Number of orbital shell sets:                                          17
       Number of orbital shells:                                              17
       Number of primitive Cartesian functions:                               30
       Number of Cartesian basis functions:                                   72
       Number of spherical basis functions:                                   57
       Norm type:                                                              2

       Normalised Cartesian orbitals:

                        Set   Shell   Orbital            Exponent    Coefficient

                          1       1    1s           160676.279550       0.446090
                                                     23953.195039       0.837223
                                                      5437.506371       1.444713
                                                      1544.274102       2.328247
                                                       507.888143       3.512920
                                                       184.948477       4.867126
                                                        72.522952       5.787659
                                                        30.088714       5.253304

                          2       1    1s              120.684349       2.692261
                                                        36.074295       9.627353

                          3       1    1s               13.052091       4.894070

                          4       1    1s                5.797478       2.662805

                          5       1    1s                2.047863       1.220073

                          6       1    1s                0.802146       0.604088

                          7       1    1s                0.305487       0.292856

                          8       1    1px             498.433975       2.979644
                                                       118.141092       4.137902
                                                        38.032530       5.056380
                                                        14.183732       5.260574
                                                         5.786419       4.400016
                                                         2.459962       2.645742
                          8       1    1py             498.433975       2.979644
                                                       118.141092       4.137902
                                                        38.032530       5.056380
                                                        14.183732       5.260574
                                                         5.786419       4.400016
                                                         2.459962       2.645742
                          8       1    1pz             498.433975       2.979644
                                                       118.141092       4.137902
                                                        38.032530       5.056380
                                                        14.183732       5.260574
                                                         5.786419       4.400016
                                                         2.459962       2.645742

                          9       1    1px               1.042200       1.500994
                          9       1    1py               1.042200       1.500994
                          9       1    1pz               1.042200       1.500994

                         10       1    1px               0.429877       0.496159
                         10       1    1py               0.429877       0.496159
                         10       1    1pz               0.429877       0.496159

                         11       1    1px               0.168897       0.154336
                         11       1    1py               0.168897       0.154336
                         11       1    1pz               0.168897       0.154336

                         12       1    1dx2              6.471000      43.212501
                         12       1    1dxy              6.471000      74.846248
                         12       1    1dxz              6.471000      74.846248
                         12       1    1dy2              6.471000      43.212501
                         12       1    1dyz              6.471000      74.846248
                         12       1    1dz2              6.471000      43.212501

                         13       1    1dx2              2.213000       6.608866
                         13       1    1dxy              2.213000      11.446891
                         13       1    1dxz              2.213000      11.446891
                         13       1    1dy2              2.213000       6.608866
                         13       1    1dyz              2.213000      11.446891
                         13       1    1dz2              2.213000       6.608866

                         14       1    1dx2              0.747000       0.987917
                         14       1    1dxy              0.747000       1.711123
                         14       1    1dxz              0.747000       1.711123
                         14       1    1dy2              0.747000       0.987917
                         14       1    1dyz              0.747000       1.711123
                         14       1    1dz2              0.747000       0.987917

                         15       1    1fx3              4.657000      46.902229
                         15       1    1fx2y             4.657000     104.876573
                         15       1    1fx2z             4.657000     104.876573
                         15       1    1fxy2             4.657000     104.876573
                         15       1    1fxyz             4.657000     181.651553
                         15       1    1fxz2             4.657000     104.876573
                         15       1    1fy3              4.657000      46.902229
                         15       1    1fy2z             4.657000     104.876573
                         15       1    1fyz2             4.657000     104.876573
                         15       1    1fz3              4.657000      46.902229

                         16       1    1fx3              1.524000       3.799012
                         16       1    1fx2y             1.524000       8.494848
                         16       1    1fx2z             1.524000       8.494848
                         16       1    1fxy2             1.524000       8.494848
                         16       1    1fxyz             1.524000      14.713509
                         16       1    1fxz2             1.524000       8.494848
                         16       1    1fy3              1.524000       3.799012
                         16       1    1fy2z             1.524000       8.494848
                         16       1    1fyz2             1.524000       8.494848
                         16       1    1fz3              1.524000       3.799012

                         17       1    1gx4              2.983000      22.476665
                         17       1    1gx3y             2.983000      59.467666
                         17       1    1gx3z             2.983000      59.467666
                         17       1    1gx2y2            2.983000      76.772426
                         17       1    1gx2yz            2.983000     132.973743
                         17       1    1gx2z2            2.983000      76.772426
                         17       1    1gxy3             2.983000      59.467666
                         17       1    1gxy2z            2.983000     132.973743
                         17       1    1gxyz2            2.983000     132.973743
                         17       1    1gxz3             2.983000      59.467666
                         17       1    1gy4              2.983000      22.476665
                         17       1    1gy3z             2.983000      59.467666
                         17       1    1gy2z2            2.983000      76.772426
                         17       1    1gyz3             2.983000      59.467666
                         17       1    1gz4              2.983000      22.476665

     RI Auxiliary Basis Set                                                RI-5Z

       Number of orbital shell sets:                                          39
       Number of orbital shells:                                              39
       Number of primitive Cartesian functions:                               39
       Number of Cartesian basis functions:                                  287
       Number of spherical basis functions:                                  193
       Norm type:                                                              2

       Normalised Cartesian orbitals:

                        Set   Shell   Orbital            Exponent    Coefficient

                          1       1    1s              812.720000     108.484028

                          2       1    1s              174.700000      34.247571

                          3       1    1s               44.592600      12.298643

                          4       1    1s               26.694500       8.370019

                          5       1    1s                9.386180       3.821877

                          6       1    1s                5.419070       2.531359

                          7       1    1s                3.405580       1.786707

                          8       1    1s                1.556700       0.993262

                          9       1    1s                0.771454       0.586668

                         10       1    1s                0.370078       0.338166

                         11       1    1px             148.323000     737.820494
                         11       1    1py             148.323000     737.820494
                         11       1    1pz             148.323000     737.820494

                         12       1    1px              40.018100     143.469858
                         12       1    1py              40.018100     143.469858
                         12       1    1pz              40.018100     143.469858

                         13       1    1px              18.457600      54.532967
                         13       1    1py              18.457600      54.532967
                         13       1    1pz              18.457600      54.532967

                         14       1    1px               8.050320      19.328872
                         14       1    1py               8.050320      19.328872
                         14       1    1pz               8.050320      19.328872

                         15       1    1px               4.381080       9.034759
                         15       1    1py               4.381080       9.034759
                         15       1    1pz               4.381080       9.034759

                         16       1    1px               2.075890       3.551776
                         16       1    1py               2.075890       3.551776
                         16       1    1pz               2.075890       3.551776

                         17       1    1px               1.102230       1.609831
                         17       1    1py               1.102230       1.609831
                         17       1    1pz               1.102230       1.609831

                         18       1    1px               0.668960       0.862363
                         18       1    1py               0.668960       0.862363
                         18       1    1pz               0.668960       0.862363

                         19       1    1dx2             34.484200     807.690041
                         19       1    1dxy             34.484200    1398.960187
                         19       1    1dxz             34.484200    1398.960187
                         19       1    1dy2             34.484200     807.690041
                         19       1    1dyz             34.484200    1398.960187
                         19       1    1dz2             34.484200     807.690041

                         20       1    1dx2             10.919700     107.963808
                         20       1    1dxy             10.919700     186.998801
                         20       1    1dxz             10.919700     186.998801
                         20       1    1dy2             10.919700     107.963808
                         20       1    1dyz             10.919700     186.998801
                         20       1    1dz2             10.919700     107.963808

                         21       1    1dx2              6.880030      48.105257
                         21       1    1dxy              6.880030      83.320749
                         21       1    1dxz              6.880030      83.320749
                         21       1    1dy2              6.880030      48.105257
                         21       1    1dyz              6.880030      83.320749
                         21       1    1dz2              6.880030      48.105257

                         22       1    1dx2              3.533060      14.985586
                         22       1    1dxy              3.533060      25.955796
                         22       1    1dxz              3.533060      25.955796
                         22       1    1dy2              3.533060      14.985586
                         22       1    1dyz              3.533060      25.955796
                         22       1    1dz2              3.533060      14.985586

                         23       1    1dx2              2.197710       6.529165
                         23       1    1dxy              2.197710      11.308845
                         23       1    1dxz              2.197710      11.308845
                         23       1    1dy2              2.197710       6.529165
                         23       1    1dyz              2.197710      11.308845
                         23       1    1dz2              2.197710       6.529165

                         24       1    1dx2              1.103520       1.955577
                         24       1    1dxy              1.103520       3.387158
                         24       1    1dxz              1.103520       3.387158
                         24       1    1dy2              1.103520       1.955577
                         24       1    1dyz              1.103520       3.387158
                         24       1    1dz2              1.103520       1.955577

                         25       1    1dx2              0.449220       0.405707
                         25       1    1dxy              0.449220       0.702706
                         25       1    1dxz              0.449220       0.702706
                         25       1    1dy2              0.449220       0.405707
                         25       1    1dyz              0.449220       0.702706
                         25       1    1dz2              0.449220       0.405707

                         26       1    1fx3             24.052600    1886.118673
                         26       1    1fx2y            24.052600    4217.489567
                         26       1    1fx2z            24.052600    4217.489567
                         26       1    1fxy2            24.052600    4217.489567
                         26       1    1fxyz            24.052600    7304.906211
                         26       1    1fxz2            24.052600    4217.489567
                         26       1    1fy3             24.052600    1886.118673
                         26       1    1fy2z            24.052600    4217.489567
                         26       1    1fyz2            24.052600    4217.489567
                         26       1    1fz3             24.052600    1886.118673

                         27       1    1fx3             11.324600     346.342597
                         27       1    1fx2y            11.324600     774.445591
                         27       1    1fx2z            11.324600     774.445591
                         27       1    1fxy2            11.324600     774.445591
                         27       1    1fxyz            11.324600    1341.379112
                         27       1    1fxz2            11.324600     774.445591
                         27       1    1fy3             11.324600     346.342597
                         27       1    1fy2z            11.324600     774.445591
                         27       1    1fyz2            11.324600     774.445591
                         27       1    1fz3             11.324600     346.342597

                         28       1    1fx3              6.356670      94.454184
                         28       1    1fx2y             6.356670     211.205975
                         28       1    1fx2z             6.356670     211.205975
                         28       1    1fxy2             6.356670     211.205975
                         28       1    1fxyz             6.356670     365.819480
                         28       1    1fxz2             6.356670     211.205975
                         28       1    1fy3              6.356670      94.454184
                         28       1    1fy2z             6.356670     211.205975
                         28       1    1fyz2             6.356670     211.205975
                         28       1    1fz3              6.356670      94.454184

                         29       1    1fx3              3.729160      28.449801
                         29       1    1fx2y             3.729160      63.615690
                         29       1    1fx2z             3.729160      63.615690
                         29       1    1fxy2             3.729160      63.615690
                         29       1    1fxyz             3.729160     110.185607
                         29       1    1fxz2             3.729160      63.615690
                         29       1    1fy3              3.729160      28.449801
                         29       1    1fy2z             3.729160      63.615690
                         29       1    1fyz2             3.729160      63.615690
                         29       1    1fz3              3.729160      28.449801

                         30       1    1fx3              2.028310       7.227809
                         30       1    1fx2y             2.028310      16.161873
                         30       1    1fx2z             2.028310      16.161873
                         30       1    1fxy2             2.028310      16.161873
                         30       1    1fxyz             2.028310      27.993186
                         30       1    1fxz2             2.028310      16.161873
                         30       1    1fy3              2.028310       7.227809
                         30       1    1fy2z             2.028310      16.161873
                         30       1    1fyz2             2.028310      16.161873
                         30       1    1fz3              2.028310       7.227809

                         31       1    1fx3              1.024880       1.555854
                         31       1    1fx2y             1.024880       3.478995
                         31       1    1fx2z             1.024880       3.478995
                         31       1    1fxy2             1.024880       3.478995
                         31       1    1fxyz             1.024880       6.025795
                         31       1    1fxz2             1.024880       3.478995
                         31       1    1fy3              1.024880       1.555854
                         31       1    1fy2z             1.024880       3.478995
                         31       1    1fyz2             1.024880       3.478995
                         31       1    1fz3              1.024880       1.555854

                         32       1    1gx4             11.760300     977.430815
                         32       1    1gx3y            11.760300    2586.038861
                         32       1    1gx3z            11.760300    2586.038861
                         32       1    1gx2y2           11.760300    3338.561814
                         32       1    1gx2yz           11.760300    5782.558686
                         32       1    1gx2z2           11.760300    3338.561814
                         32       1    1gxy3            11.760300    2586.038861
                         32       1    1gxy2z           11.760300    5782.558686
                         32       1    1gxyz2           11.760300    5782.558686
                         32       1    1gxz3            11.760300    2586.038861
                         32       1    1gy4             11.760300     977.430815
                         32       1    1gy3z            11.760300    2586.038861
                         32       1    1gy2z2           11.760300    3338.561814
                         32       1    1gyz3            11.760300    2586.038861
                         32       1    1gz4             11.760300     977.430815

                         33       1    1gx4              6.187520     167.149899
                         33       1    1gx3y             6.187520     442.237064
                         33       1    1gx3z             6.187520     442.237064
                         33       1    1gx2y2            6.187520     570.925595
                         33       1    1gx2yz            6.187520     988.872138
                         33       1    1gx2z2            6.187520     570.925595
                         33       1    1gxy3             6.187520     442.237064
                         33       1    1gxy2z            6.187520     988.872138
                         33       1    1gxyz2            6.187520     988.872138
                         33       1    1gxz3             6.187520     442.237064
                         33       1    1gy4              6.187520     167.149899
                         33       1    1gy3z             6.187520     442.237064
                         33       1    1gy2z2            6.187520     570.925595
                         33       1    1gyz3             6.187520     442.237064
                         33       1    1gz4              6.187520     167.149899

                         34       1    1gx4              3.483490      34.433050
                         34       1    1gx3y             3.483490      91.101286
                         34       1    1gx3z             3.483490      91.101286
                         34       1    1gx2y2            3.483490     117.611255
                         34       1    1gx2yz            3.483490     203.708668
                         34       1    1gx2z2            3.483490     117.611255
                         34       1    1gxy3             3.483490      91.101286
                         34       1    1gxy2z            3.483490     203.708668
                         34       1    1gxyz2            3.483490     203.708668
                         34       1    1gxz3             3.483490      91.101286
                         34       1    1gy4              3.483490      34.433050
                         34       1    1gy3z             3.483490      91.101286
                         34       1    1gy2z2            3.483490     117.611255
                         34       1    1gyz3             3.483490      91.101286
                         34       1    1gz4              3.483490      34.433050

                         35       1    1gx4              1.719280       4.938995
                         35       1    1gx3y             1.719280      13.067353
                         35       1    1gx3z             1.719280      13.067353
                         35       1    1gx2y2            1.719280      16.869880
                         35       1    1gx2yz            1.719280      29.219490
                         35       1    1gx2z2            1.719280      16.869880
                         35       1    1gxy3             1.719280      13.067353
                         35       1    1gxy2z            1.719280      29.219490
                         35       1    1gxyz2            1.719280      29.219490
                         35       1    1gxz3             1.719280      13.067353
                         35       1    1gy4              1.719280       4.938995
                         35       1    1gy3z             1.719280      13.067353
                         35       1    1gy2z2            1.719280      16.869880
                         35       1    1gyz3             1.719280      13.067353
                         35       1    1gz4              1.719280       4.938995

                         36       1    1hx5              8.998630     936.305233
                         36       1    1hx4y             8.998630    2808.915698
                         36       1    1hx4z             8.998630    2808.915698
                         36       1    1hx3y2            8.998630    4290.689602
                         36       1    1hx3yz            8.998630    7431.692390
                         36       1    1hx3z2            8.998630    4290.689602
                         36       1    1hx2y3            8.998630    4290.689602
                         36       1    1hx2y2z           8.998630    9594.273621
                         36       1    1hx2yz2           8.998630    9594.273621
                         36       1    1hx2z3            8.998630    4290.689602
                         36       1    1hxy4             8.998630    2808.915698
                         36       1    1hxy3z            8.998630    7431.692390
                         36       1    1hxy2z2           8.998630    9594.273621
                         36       1    1hxyz3            8.998630    7431.692390
                         36       1    1hxz4             8.998630    2808.915698
                         36       1    1hy5              8.998630     936.305233
                         36       1    1hy4z             8.998630    2808.915698
                         36       1    1hy3z2            8.998630    4290.689602
                         36       1    1hy2z3            8.998630    4290.689602
                         36       1    1hyz4             8.998630    2808.915698
                         36       1    1hz5              8.998630     936.305233

                         37       1    1hx5              5.230840     160.583653
                         37       1    1hx4y             5.230840     481.750960
                         37       1    1hx4z             5.230840     481.750960
                         37       1    1hx3y2            5.230840     735.886746
                         37       1    1hx3yz            5.230840    1274.593233
                         37       1    1hx3z2            5.230840     735.886746
                         37       1    1hx2y3            5.230840     735.886746
                         37       1    1hx2y2z           5.230840    1645.492788
                         37       1    1hx2yz2           5.230840    1645.492788
                         37       1    1hx2z3            5.230840     735.886746
                         37       1    1hxy4             5.230840     481.750960
                         37       1    1hxy3z            5.230840    1274.593233
                         37       1    1hxy2z2           5.230840    1645.492788
                         37       1    1hxyz3            5.230840    1274.593233
                         37       1    1hxz4             5.230840     481.750960
                         37       1    1hy5              5.230840     160.583653
                         37       1    1hy4z             5.230840     481.750960
                         37       1    1hy3z2            5.230840     735.886746
                         37       1    1hy2z3            5.230840     735.886746
                         37       1    1hyz4             5.230840     481.750960
                         37       1    1hz5              5.230840     160.583653

                         38       1    1hx5              2.734970      19.518211
                         38       1    1hx4y             2.734970      58.554633
                         38       1    1hx4z             2.734970      58.554633
                         38       1    1hx3y2            2.734970      89.443679
                         38       1    1hx3yz            2.734970     154.920997
                         38       1    1hx3z2            2.734970      89.443679
                         38       1    1hx2y3            2.734970      89.443679
                         38       1    1hx2y2z           2.734970     200.002147
                         38       1    1hx2yz2           2.734970     200.002147
                         38       1    1hx2z3            2.734970      89.443679
                         38       1    1hxy4             2.734970      58.554633
                         38       1    1hxy3z            2.734970     154.920997
                         38       1    1hxy2z2           2.734970     200.002147
                         38       1    1hxyz3            2.734970     154.920997
                         38       1    1hxz4             2.734970      58.554633
                         38       1    1hy5              2.734970      19.518211
                         38       1    1hy4z             2.734970      58.554633
                         38       1    1hy3z2            2.734970      89.443679
                         38       1    1hy2z3            2.734970      89.443679
                         38       1    1hyz4             2.734970      58.554633
                         38       1    1hz5              2.734970      19.518211

                         39       1    1ix6              5.335280     238.515925
                         39       1    1ix5y             5.335280     791.067830
                         39       1    1ix5z             5.335280     791.067830
                         39       1    1ix4y2            5.335280    1370.169674
                         39       1    1ix4yz            5.335280    2373.203491
                         39       1    1ix4z2            5.335280    1370.169674
                         39       1    1ix3y3            5.335280    1621.206622
                         39       1    1ix3y2z           5.335280    3625.128213
                         39       1    1ix3yz2           5.335280    3625.128213
                         39       1    1ix3z3            5.335280    1621.206622
                         39       1    1ix2y4            5.335280    1370.169674
                         39       1    1ix2y3z           5.335280    3625.128213
                         39       1    1ix2y2z2          5.335280    4680.020398
                         39       1    1ix2yz3           5.335280    3625.128213
                         39       1    1ix2z4            5.335280    1370.169674
                         39       1    1ixy5             5.335280     791.067830
                         39       1    1ixy4z            5.335280    2373.203491
                         39       1    1ixy3z2           5.335280    3625.128213
                         39       1    1ixy2z3           5.335280    3625.128213
                         39       1    1ixyz4            5.335280    2373.203491
                         39       1    1ixz5             5.335280     791.067830
                         39       1    1iy6              5.335280     238.515925
                         39       1    1iy5z             5.335280     791.067830
                         39       1    1iy4z2            5.335280    1370.169674
                         39       1    1iy3z3            5.335280    1621.206622
                         39       1    1iy2z4            5.335280    1370.169674
                         39       1    1iyz5             5.335280     791.067830
                         39       1    1iz6              5.335280     238.515925

     The atoms of this atomic kind are PAW atoms (GAPW):
       Hard Gaussian function radius:                                      1.512
       Rho0 radius:                                                        1.512
       Maximum GTO radius used for PAW projector construction:            24.566

     GAPW Soft Basis Set                                          def2-QZVP_soft

       Number of orbital shell sets:                                          17
       Number of orbital shells:                                              17
       Number of primitive Cartesian functions:                               11
       Number of Cartesian basis functions:                                   72
       Number of spherical basis functions:                                   57
       Norm type:                                                              2

       Normalised Cartesian orbitals:

                        Set   Shell   Orbital            Exponent    Coefficient

                          1       1    1s         

                          2       1    1s         

                          3       1    1s         

                          4       1    1s         

                          5       1    1s                2.047863       1.220073

                          6       1    1s                0.802146       0.604088

                          7       1    1s                0.305487       0.292856

                          8       1    1px               2.459962       2.645742
                          8       1    1py               2.459962       2.645742
                          8       1    1pz               2.459962       2.645742

                          9       1    1px               1.042200       1.500994
                          9       1    1py               1.042200       1.500994
                          9       1    1pz               1.042200       1.500994

                         10       1    1px               0.429877       0.496159
                         10       1    1py               0.429877       0.496159
                         10       1    1pz               0.429877       0.496159

                         11       1    1px               0.168897       0.154336
                         11       1    1py               0.168897       0.154336
                         11       1    1pz               0.168897       0.154336

                         12       1    1dx2       
                         12       1    1dxy       
                         12       1    1dxz       
                         12       1    1dy2       
                         12       1    1dyz       
                         12       1    1dz2       

                         13       1    1dx2              2.213000       6.608866
                         13       1    1dxy              2.213000      11.446891
                         13       1    1dxz              2.213000      11.446891
                         13       1    1dy2              2.213000       6.608866
                         13       1    1dyz              2.213000      11.446891
                         13       1    1dz2              2.213000       6.608866

                         14       1    1dx2              0.747000       0.987917
                         14       1    1dxy              0.747000       1.711123
                         14       1    1dxz              0.747000       1.711123
                         14       1    1dy2              0.747000       0.987917
                         14       1    1dyz              0.747000       1.711123
                         14       1    1dz2              0.747000       0.987917

                         15       1    1fx3       
                         15       1    1fx2y      
                         15       1    1fx2z      
                         15       1    1fxy2      
                         15       1    1fxyz      
                         15       1    1fxz2      
                         15       1    1fy3       
                         15       1    1fy2z      
                         15       1    1fyz2      
                         15       1    1fz3       

                         16       1    1fx3              1.524000       3.799012
                         16       1    1fx2y             1.524000       8.494848
                         16       1    1fx2z             1.524000       8.494848
                         16       1    1fxy2             1.524000       8.494848
                         16       1    1fxyz             1.524000      14.713509
                         16       1    1fxz2             1.524000       8.494848
                         16       1    1fy3              1.524000       3.799012
                         16       1    1fy2z             1.524000       8.494848
                         16       1    1fyz2             1.524000       8.494848
                         16       1    1fz3              1.524000       3.799012

                         17       1    1gx4              2.983000      22.476665
                         17       1    1gx3y             2.983000      59.467666
                         17       1    1gx3z             2.983000      59.467666
                         17       1    1gx2y2            2.983000      76.772426
                         17       1    1gx2yz            2.983000     132.973743
                         17       1    1gx2z2            2.983000      76.772426
                         17       1    1gxy3             2.983000      59.467666
                         17       1    1gxy2z            2.983000     132.973743
                         17       1    1gxyz2            2.983000     132.973743
                         17       1    1gxz3             2.983000      59.467666
                         17       1    1gy4              2.983000      22.476665
                         17       1    1gy3z             2.983000      59.467666
                         17       1    1gy2z2            2.983000      76.772426
                         17       1    1gyz3             2.983000      59.467666
                         17       1    1gz4              2.983000      22.476665

     AE Potential information for                                            ALL

       Description:                                       All-electron potential
                                          Krack, Parrinello, PCCP 2, 2105 (2000)

       Gaussian exponent of the core charge distribution:              13.850416
       Electronic configuration (s p d ...):                           4   6   0


 MOLECULE KIND INFORMATION


 All atoms are their own molecule, skipping detailed information


 TOTAL NUMBERS AND MAXIMUM NUMBERS

  Total number of            - Atomic kinds:                                   1
                             - Atoms:                                          1
                             - Shell sets:                                    17
                             - Shells:                                        17
                             - Primitive Cartesian functions:                 30
                             - Cartesian basis functions:                     72
                             - Spherical basis functions:                     57

  Maximum angular momentum of the orbital basis functions:                     4


 MODULE QUICKSTEP:  ATOMIC COORDINATES IN angstrom

  Atom  Kind  Element       X           Y           Z          Z(eff)       Mass

       1     1 Ne  10    8.000000    8.000000    8.000000     10.00      20.1797




 SCF PARAMETERS         Density guess:                                   RESTART
                        --------------------------------------------------------
                        max_scf:                                             200
                        max_scf_history:                                       0
                        max_diis:                                              4
                        --------------------------------------------------------
                        eps_scf:                                        1.00E-06
                        eps_scf_history:                                0.00E+00
                        eps_diis:                                       1.00E-01
                        eps_eigval:                                     1.00E-05
                        --------------------------------------------------------
                        level_shift [a.u.]:                                 0.00
                        --------------------------------------------------------
                        Mixing method:                           DIRECT_P_MIXING
                        --------------------------------------------------------
                        No outer SCF

 PW_GRID| Information for grid number                                          1
 PW_GRID| Grid distributed over                                    24 processors
 PW_GRID| Real space group dimensions                                    24    1
 PW_GRID| the grid is blocked:                                                NO
 PW_GRID| Cutoff [a.u.]                                                    400.0
 PW_GRID| spherical cutoff:                                                   NO
 PW_GRID|   Bounds   1           -144     143                Points:         288
 PW_GRID|   Bounds   2           -144     143                Points:         288
 PW_GRID|   Bounds   3           -144     143                Points:         288
 PW_GRID| Volume element (a.u.^3)  0.1157E-02     Volume (a.u.^3)     27641.1785
 PW_GRID| Grid span                                                    FULLSPACE
 PW_GRID|   Distribution                         Average         Max         Min
 PW_GRID|   G-Vectors                           995328.0      995328      995328
 PW_GRID|   G-Rays                                3456.0        3456        3456
 PW_GRID|   Real Space Points                   995328.0      995328      995328

 PW_GRID| Information for grid number                                          2
 PW_GRID| Grid distributed over                                    24 processors
 PW_GRID| Real space group dimensions                                    24    1
 PW_GRID| the grid is blocked:                                                NO
 PW_GRID| Cutoff [a.u.]                                                    200.0
 PW_GRID| spherical cutoff:                                                   NO
 PW_GRID|   Bounds   1           -100      99                Points:         200
 PW_GRID|   Bounds   2           -100      99                Points:         200
 PW_GRID|   Bounds   3           -100      99                Points:         200
 PW_GRID| Volume element (a.u.^3)  0.3455E-02     Volume (a.u.^3)     27641.1785
 PW_GRID| Grid span                                                    FULLSPACE
 PW_GRID|   Distribution                         Average         Max         Min
 PW_GRID|   G-Vectors                           333333.3      333600      333200
 PW_GRID|   G-Rays                                1666.7        1668        1666
 PW_GRID|   Real Space Points                   333333.3      360000      320000

 PW_GRID| Information for grid number                                          3
 PW_GRID| Grid distributed over                                    24 processors
 PW_GRID| Real space group dimensions                                    24    1
 PW_GRID| the grid is blocked:                                                NO
 PW_GRID| Cutoff [a.u.]                                                     66.7
 PW_GRID| spherical cutoff:                                                   NO
 PW_GRID|   Bounds   1            -60      59                Points:         120
 PW_GRID|   Bounds   2            -60      59                Points:         120
 PW_GRID|   Bounds   3            -60      59                Points:         120
 PW_GRID| Volume element (a.u.^3)  0.1600E-01     Volume (a.u.^3)     27641.1785
 PW_GRID| Grid span                                                    FULLSPACE
 PW_GRID|   Distribution                         Average         Max         Min
 PW_GRID|   G-Vectors                            72000.0       72360       71760
 PW_GRID|   G-Rays                                 600.0         603         598
 PW_GRID|   Real Space Points                    72000.0       72000       72000

 PW_GRID| Information for grid number                                          4
 PW_GRID| Grid distributed over                                    24 processors
 PW_GRID| Real space group dimensions                                    24    1
 PW_GRID| the grid is blocked:                                                NO
 PW_GRID| Cutoff [a.u.]                                                     22.2
 PW_GRID| spherical cutoff:                                                   NO
 PW_GRID|   Bounds   1            -36      35                Points:          72
 PW_GRID|   Bounds   2            -36      35                Points:          72
 PW_GRID|   Bounds   3            -36      35                Points:          72
 PW_GRID| Volume element (a.u.^3)  0.7406E-01     Volume (a.u.^3)     27641.1785
 PW_GRID| Grid span                                                    FULLSPACE
 PW_GRID|   Distribution                         Average         Max         Min
 PW_GRID|   G-Vectors                            15552.0       15768       15408
 PW_GRID|   G-Rays                                 216.0         219         214
 PW_GRID|   Real Space Points                    15552.0       15552       15552

 PW_GRID| Information for grid number                                          5
 PW_GRID| Grid distributed over                                    24 processors
 PW_GRID| Real space group dimensions                                    24    1
 PW_GRID| the grid is blocked:                                                NO
 PW_GRID| Cutoff [a.u.]                                                      7.4
 PW_GRID| spherical cutoff:                                                   NO
 PW_GRID|   Bounds   1            -20      19                Points:          40
 PW_GRID|   Bounds   2            -20      19                Points:          40
 PW_GRID|   Bounds   3            -20      19                Points:          40
 PW_GRID| Volume element (a.u.^3)  0.4319         Volume (a.u.^3)     27641.1785
 PW_GRID| Grid span                                                    FULLSPACE
 PW_GRID|   Distribution                         Average         Max         Min
 PW_GRID|   G-Vectors                             2666.7        2720        2640
 PW_GRID|   G-Rays                                  66.7          68          66
 PW_GRID|   Real Space Points                     2666.7        3200        1600

 POISSON| Solver                                          Martyna-Tuckerman (MT)
 POISSON| MT| Alpha                                                        7.000
 POISSON| MT| Relative cutoff                                                2.0
 POISSON| Periodicity                                                       NONE

 RS_GRID| Information for grid number                                          2
 RS_GRID|   Bounds   1           -100      99                Points:         200
 RS_GRID|   Bounds   2           -100      99                Points:         200
 RS_GRID|   Bounds   3           -100      99                Points:         200
 RS_GRID| Real space distribution over                                  4 groups
 RS_GRID| Real space distribution along direction                              2
 RS_GRID| Border size                                                         23
 RS_GRID| Real space distribution over                                  6 groups
 RS_GRID| Real space distribution along direction                              3
 RS_GRID| Border size                                                         23
 RS_GRID|   Distribution                         Average         Max         Min
 RS_GRID|   Planes                                  96.0          96          96
 RS_GRID|   Distribution                         Average         Max         Min
 RS_GRID|   Planes                                  79.3          80          79

 RS_GRID| Information for grid number                                          3
 RS_GRID|   Bounds   1            -60      59                Points:         120
 RS_GRID|   Bounds   2            -60      59                Points:         120
 RS_GRID|   Bounds   3            -60      59                Points:         120
 RS_GRID| Real space distribution over                                  4 groups
 RS_GRID| Real space distribution along direction                              2
 RS_GRID| Border size                                                         25
 RS_GRID| Real space distribution over                                  6 groups
 RS_GRID| Real space distribution along direction                              3
 RS_GRID| Border size                                                         25
 RS_GRID|   Distribution                         Average         Max         Min
 RS_GRID|   Planes                                  80.0          80          80
 RS_GRID|   Distribution                         Average         Max         Min
 RS_GRID|   Planes                                  70.0          70          70

 RS_GRID| Information for grid number                                          4
 RS_GRID|   Bounds   1            -36      35                Points:          72
 RS_GRID|   Bounds   2            -36      35                Points:          72
 RS_GRID|   Bounds   3            -36      35                Points:          72
 RS_GRID| Real space fully replicated
 RS_GRID| Group size                                                           1

 RS_GRID| Information for grid number                                          5
 RS_GRID|   Bounds   1            -20      19                Points:          40
 RS_GRID|   Bounds   2            -20      19                Points:          40
 RS_GRID|   Bounds   3            -20      19                Points:          40
 RS_GRID| Real space fully replicated
 RS_GRID| Group size                                                           1
 
 RI-RPA| using GPW style
 

  HFX_INFO| Replica ID:                                                        1
  HFX_INFO| EPS_SCHWARZ:                                                 2.0E-17
  HFX_INFO| EPS_SCHWARZ_FORCES                                           1.0E-06
  HFX_INFO| EPS_STORAGE_SCALING:                                         1.0E+00
  HFX_INFO| NBINS:                                                            64
  HFX_INFO| BLOCK_SIZE:                                                        1
  HFX_INFO| FRACTION:                                               1.0000000000
  HFX_INFO| Interaction Potential:                                       COULOMB
  HFX_INFO| Number of periodic shells considered:                           NONE
  HFX_INFO| Number of periodic cells considered:                            NONE


 Number of electrons:                                                         10
 Number of occupied orbitals:                                                  5
 Number of molecular orbitals:                                                 5

 Number of orbital functions:                                                 57
 Number of independent orbital functions:                                     57

 Extrapolation method: initial_guess

 *** WARNING in qs_initial_guess.F:267 :: User requested to restart the   ***
 *** wavefunction from the file named: ALL_ELEC-RESTART.wfn. This file    ***
 *** does not exist. Please check the existence of the file or change     ***
 *** properly the value of the keyword WFN_RESTART_FILE_NAME. Calculation ***
 *** continues using ATOMIC GUESS.                                        ***


 Atomic guess: The first density matrix is obtained in terms of atomic orbitals
               and electronic configurations assigned to each atomic kind

 Guess for atomic kind: Ne

 Electronic structure
    Total number of core electrons                                          0.00
    Total number of valence electrons                                      10.00
    Total number of electrons                                              10.00
    Multiplicity                                                   not specified
    S      2.00  2.00
    P      6.00


 *******************************************************************************
                  Iteration          Convergence                     Energy [au]
 *******************************************************************************
                          1         1.83763                    -127.877941943556
                          2         2.59460                    -127.718520130258
                          3        0.240765                    -128.222287635112
                          4        0.810489E-02                -128.229001954771
                          5        0.722657E-03                -128.229006218469
                          6        0.377264E-04                -128.229006262447
                          7        0.784197E-07                -128.229006262567

 Energy components [Hartree]           Total Energy ::         -128.229006262567
                                        Band Energy ::          -66.241030274704
                                     Kinetic Energy ::          127.668703810726
                                   Potential Energy ::         -255.897710073294
                                      Virial (-V/T) ::            2.004388722021
                                        Core Energy ::         -182.248295870766
                                          XC Energy ::          -11.707756459057
                                     Coulomb Energy ::           65.727046067256

 Orbital energies  State     L     Occupation   Energy[a.u.]          Energy[eV]

                       1     0          2.000     -30.309761         -824.770550
                       2     0          2.000      -1.321209          -35.951931

                       1     1          6.000      -0.496515          -13.510857


 Total Electron Density at R=0:                                       606.402689
 Re-scaling the density matrix to get the right number of electrons
                  # Electrons              Trace(P)               Scaling factor
                           10                10.000                        1.000


 SCF WAVEFUNCTION OPTIMIZATION

  Step     Update method      Time    Convergence         Total energy    Change
  ------------------------------------------------------------------------------
     1 P_Mix/Diag. 0.40E+00    2.0     0.01499161      -128.8631194653 -1.29E+02
     2 P_Mix/Diag. 0.40E+00    2.0     0.00863390      -128.8640478928 -9.28E-04
     3 DIIS/Diag.  0.67E-02    2.2     0.00502859      -128.8645915851 -5.44E-04
     4 DIIS/Diag.  0.87E-02    2.0     0.00053494      -128.8653913898 -8.00E-04
     5 DIIS/Diag.  0.37E-01    2.0     0.00047787      -128.8653847164  6.67E-06
     6 DIIS/Diag.  0.12E-01    2.0     0.00022039      -128.8653910688 -6.35E-06
     7 DIIS/Diag.  0.81E-04    2.0     0.00000155      -128.8653917798 -7.11E-07
     8 DIIS/Diag.  0.11E-06    2.0     9.4868E-09      -128.8653917798 -3.63E-11

  *** SCF run converged in     8 steps ***


  Electronic density on regular grids:         -6.8549396062        3.1450603938
  Core density on regular grids:               10.0000000000        0.0000000000
  Hard and soft densities (Lebedev):           -9.9999999968       -6.8549396069
  Total Rho_soft + Rho1_hard - Rho1_soft       -9.9999999961
  Total charge density (r-space):               0.0000000039
  Total Rho_soft + Rho0_soft (g-space):        -0.0000000618

  Overlap energy of the core charge distribution:               0.00000000000000
  Self energy of the core charge distribution:               -148.47094303888323
  Core Hamiltonian energy:                                      0.49299319231577
  Hartree energy:                                              13.56891455728374
  Exchange-correlation energy:                                 -4.49936395834055

  GAPW| Exc from hard and soft atomic rho1:                    -7.87423688112219
  GAPW| local Eh = 1 center integrals:                         17.91724434889903

  Total energy:                                              -128.86539177984744

 !-----------------------------------------------------------------------------!
                     Mulliken Population Analysis

 #  Atom  Element  Kind  Atomic population                           Net charge
       1     Ne       1         10.000000                             -0.000000
 # Total charge                             10.000000                 -0.000000

 !-----------------------------------------------------------------------------!

 !-----------------------------------------------------------------------------!
                           Hirshfeld Charges

  #Atom  Element  Kind  Ref Charge     Population                    Net charge
      1       Ne     1      10.000          9.999                         0.001

  Total Charge                                                            0.001
 !-----------------------------------------------------------------------------!


 RI-RPA section
 --------------

  Used number of processes per group:                                          1
  Maximum allowed memory usage per MPI processes:                     200.00 MiB

  HFX_MEM_INFO| Est. max. program size before HFX [MiB]:                     405
  HFX_MEM_INFO| Number of cart. primitive ERI's calculated:             81450625
  HFX_MEM_INFO| Number of sph. ERI's calculated:                        10556001
  HFX_MEM_INFO| Number of sph. ERI's stored in-core:                    10556001
  HFX_MEM_INFO| Number of sph. ERI's stored on disk:                           0
  HFX_MEM_INFO| Number of sph. ERI's calculated on the fly:                    0
  HFX_MEM_INFO| Total memory consumption ERI's RAM [MiB]:                     59
  HFX_MEM_INFO| Whereof max-vals [MiB]:                                        1
  HFX_MEM_INFO| Total compression factor ERI's RAM:                         1.37
  HFX_MEM_INFO| Total memory consumption ERI's disk [MiB]:                     0
  HFX_MEM_INFO| Total compression factor ERI's disk:                        0.00
  HFX_MEM_INFO| Size of density/Fock matrix [MiB]:                             0
  HFX_MEM_INFO| Size of buffers [MiB]:                                         0
  HFX_MEM_INFO| Est. max. program size after HFX  [MiB]:                     448

  GPW_INFO| Density cutoff [a.u.]:                                         150.0
  GPW_INFO| Relative density cutoff [a.u.]:                                 25.0
  RI_INFO| Cholesky decomposition group size:                                 24
  RI_INFO| Number of groups for auxiliary basis functions                     24
  RI_INFO| Occupied  basis set size:                                           5
  RI_INFO| Virtual   basis set size:                                          52
  RI_INFO| Auxiliary basis set size:                                         193
  RI_INFO| Total memory for (ia|K) integrals:                           0.38 MiB
  RI_INFO| Group size for frequency integration:                              24
  INTEG_INFO| MINIMAX quadrature
  INTEG_INFO| Number of integration points:                                   12
  INTEG_INFO| Number of integration points per RPA group:                     12
  MATRIX_INFO| Number row processes:                                           4
  MATRIX_INFO| Number column processes:                                        6
  MATRIX_INFO| Row block size:                                                32
  MATRIX_INFO| Column block size:                                             16
 Emin =  0.78321412398495338      Emax =   367.69391368110843      Range =   469.46793018785286     
  INTEG_INFO| Range for the minimax approximation:                      469.4679
  INTEG_INFO| Minimax parameters:                    Weights           Abscissas
                                                2.0318407517        0.2484160998
                                                2.6039620811        0.8145908198
                                                3.9697838937        1.6157289481
                                                6.6603097670        2.9084246370
                                               11.7620576872        5.1439310261
                                               21.4722136446        9.1674642657
                                               40.3203434136       16.6284422387
                                               77.9587670369       30.8634347299
                                              156.0507678580       58.9025173080
                                              328.7133294246      116.5184614133
                                              778.1307789119      244.8373194549
                                             2889.6197606024      619.2767153682
  INTEG_INFO| Range for the minimax approximation:                      469.4679
  INTEG_INFO| Gap:                                                        0.7832
  INTEG_INFO| Minimax parameters of the time grid:   Weights           Abscissas
                                                0.0017862424        0.0006866073
                                                0.0047002575        0.0038452436
                                                0.0093458756        0.0106529179
                                                0.0178556230        0.0238105998
                                                0.0337228266        0.0487937570
                                                0.0625982215        0.0955519938
                                                0.1138596013        0.1813849733
                                                0.2031302987        0.3358280496
                                                0.3567057741        0.6088717417
                                                0.6215421064        1.0858323990
                                                1.0989782766        1.9209947988
                                                2.1502373864        3.4604787332
 
 tau scaled:   8.7665342028928474E-004   4.9095687815945213E-003   1.3601539632245922E-002   3.0401136913992433E-002   6.2299383440639768E-002  0.12199983489666169       0.23159052904510846       0.42878191200454635       0.77740138111385637        1.3863800022587185        2.4527070439670684        4.4183048124654194     
 
 
 omega scaled:  0.19456299795866255       0.63799903536111047        1.2654617326808988        2.2779192542542606        4.0287994324701213        7.1800874940110173        13.023630821209322        24.172677995132549        46.133283493880377        91.258904683884438        191.76004667572477        485.02627013140699     
 
 
 weights_cos_tf_t_to_w
[...]
  MEMORY_INFO| Memory cut:                                                     1
  MEMORY_INFO| Im. time group size for RI functions:                           1
  MEMORY_INFO| Im. time group size for local P matrix:                         1
  SPARSITY_INFO| Eps pgf orb for imaginary time:                        1.00E-30
  SPARSITY_INFO| Eps filter for imaginary time:                         1.00E-30
  SPARSITY_INFO| Second eps filter for imaginary time:                  1.00E-30
  RPA_IM_TIME_INFO| Number of periodic images T for Chi_PQ^T(it):              1
  RPA_IM_TIME_INFO| Number of periodic images T for Chi_PQ^T(it):              1
  RPA_IM_TIME_INFO| Number of periodic images T for Chi_PQ^T(it):              1
  RPA_IM_TIME_INFO| Number of periodic images T for Chi_PQ^T(it):              1
  RPA_IM_TIME_INFO| Number of periodic images T for Chi_PQ^T(it):              1
  RPA_IM_TIME_INFO| Number of periodic images T for Chi_PQ^T(it):              1
  RPA_IM_TIME_INFO| Number of periodic images T for Chi_PQ^T(it):              1
  RPA_IM_TIME_INFO| Number of periodic images T for Chi_PQ^T(it):              1
  RPA_IM_TIME_INFO| Number of periodic images T for Chi_PQ^T(it):              1
  RPA_IM_TIME_INFO| Number of periodic images T for Chi_PQ^T(it):              1
  RPA_IM_TIME_INFO| Number of periodic images T for Chi_PQ^T(it):              1
  RPA_IM_TIME_INFO| Number of periodic images T for Chi_PQ^T(it):              1
  
  GW quasiparticle energies
  -------------------------
   
  The GW quasiparticle energies are calculated according to: 
  E_GW = E_SCF + Z * ( Sigc(E_SCF) + Sigx - vxc )
   
  The energy unit of the following table is eV.  Sigc_fit is a very conservative
  estimate of the statistical error of the fitting.
   
            MO      E_SCF       Sigc   Sigc_fit   Sigx-vxc          Z       E_GW
     1 ( occ )   -829.739     -3.759      0.000    -62.661      1.000   -896.159
     2 ( occ )    -36.246      7.697      0.000    -16.903      1.000    -45.453
     3 ( occ )    -13.314      3.580      0.000    -10.454      1.000    -20.189
     4 ( occ )    -13.314      3.580      0.000    -10.454      1.000    -20.189
     5 ( occ )    -13.314      3.580      0.000    -10.454      1.000    -20.189
     6 ( vir )      7.998     -0.221      0.000      3.860      1.000     11.637
     7 ( vir )      7.998     -0.221      0.000      3.860      1.000     11.637
     8 ( vir )      7.998     -0.221      0.000      3.860      1.000     11.637
     9 ( vir )     15.028     -1.291      0.000      6.405      1.000     20.142
    10 ( vir )     41.995     -2.366      0.000      8.515      1.000     48.145
    11 ( vir )     41.995     -2.366      0.000      8.515      1.000     48.145
    12 ( vir )     41.995     -2.366      0.000      8.515      1.000     48.145
    13 ( vir )     45.116     -1.726      0.000      8.735      1.000     52.125
    14 ( vir )     45.116     -1.726      0.000      8.735      1.000     52.125
    15 ( vir )     45.116     -1.726      0.000      8.735      1.000     52.125
   
  GW HOMO-LUMO gap (eV)                                                    31.83
  

  Total RI-RPA Time=                                                    3.955108
  RI-RPA energy  =                                             -0.47475616791695

  Total EXX Time=                                                       8.602082
  EXX energy  =                                               -12.04552912463081

 ENERGY| Total FORCE_EVAL ( QS ) energy (a.u.):             -129.012076500340498


 -------------------------------------------------------------------------------
 -                                                                             -
 -                                DBCSR STATISTICS                             -
 -                                                                             -
 -------------------------------------------------------------------------------
 COUNTER                                    TOTAL       BLAS       SMM       ACC
 flops    57 x    57 x     5               259920     100.0%      0.0%      0.0%
 flops    57 x    57 x    57               740772     100.0%      0.0%      0.0%
 flops    57 x   513 x    57             83336850     100.0%      0.0%      0.0%
 flops   193 x   193 x   193            172537368     100.0%      0.0%      0.0%
 flops   193 x   193 x   135            362060280     100.0%      0.0%      0.0%
 flops   193 x   193 x   150            402289200     100.0%      0.0%      0.0%
 flops   193 x    57 x    57            451481040     100.0%      0.0%      0.0%
 flops   193 x    57 x   193            764349480     100.0%      0.0%      0.0%
 flops   193 x   193 x   126           1013768784     100.0%      0.0%      0.0%
 flops   193 x   193 x   140           1126409760     100.0%      0.0%      0.0%
 flops    57 x   456 x    57           1703775600     100.0%      0.0%      0.0%
 flops inhomo. stacks                           0       0.0%      0.0%      0.0%
 flops total                         6.081009E+09     100.0%      0.0%      0.0%
 flops max/rank                      1.588602E+09     100.0%      0.0%      0.0%
 matmuls inhomo. stacks                         0       0.0%      0.0%      0.0%
 matmuls total                               1450     100.0%      0.0%      0.0%
 number of processed stacks                  1450     100.0%      0.0%      0.0%
 average stack size                                     1.0       0.0       0.0
 marketing flops                     6.080454E+09
 -------------------------------------------------------------------------------
 # multiplications                            599
 max memory usage/rank             471.965696E+06
 # max total images/rank                        3
 # max 3D layers                                1
 # MPI messages exchanged                  256272
 MPI messages size (bytes):
  total size                       531.371904E+06
  min size                           0.000000E+00
  max size                         297.992000E+03
  average size                       2.073469E+03
 MPI breakdown and total messages size (bytes):
             size <=      128              251776                        0
       128 < size <=     8192                  64                   145920
      8192 < size <=    32768                1096                 28487232
     32768 < size <=   131072                2340                205938720
    131072 < size <=  4194304                 996                296800032
   4194304 < size <= 16777216                   0                        0
  16777216 < size                               0                        0
 -------------------------------------------------------------------------------

 *** WARNING in dbcsr_mm.F:278 :: Using a non-square number of MPI ranks ***
 *** might lead to poor performance. Used ranks: 24 Suggested: 25 49     ***

 -------------------------------------------------------------------------------
 -                                                                             -
 -                      DBCSR MESSAGE PASSING PERFORMANCE                      -
 -                                                                             -
 -------------------------------------------------------------------------------

 ROUTINE             CALLS      AVE VOLUME [Bytes]
 MP_Group               37
 MP_Bcast               12                     12.
 MP_Allreduce         3400                      8.
 MP_Alltoall          2087                  15476.
 MP_Wait             32360
 MP_ISend            23752                   5017.
 MP_IRecv            23752                     56.
 MP_Memory           45496
 -------------------------------------------------------------------------------


 MEMORY| Estimated peak process memory [MiB]                                 451

 -------------------------------------------------------------------------------
 ----                             MULTIGRID INFO                            ----
 -------------------------------------------------------------------------------
 count for grid        1:          85043          cutoff [a.u.]          200.00
 count for grid        2:           6389          cutoff [a.u.]           66.67
 count for grid        3:           1641          cutoff [a.u.]           22.22
 count for grid        4:             96          cutoff [a.u.]            7.41
 total gridlevel count  :          93169

 -------------------------------------------------------------------------------
 -                                                                             -
 -                         MESSAGE PASSING PERFORMANCE                         -
 -                                                                             -
 -------------------------------------------------------------------------------

 ROUTINE             CALLS      AVE VOLUME [Bytes]
 MP_Group                5
 MP_Bcast              123                2213409.
 MP_Allreduce          453                  34747.
 MP_Sync                71
 MP_Alltoall           253                9102332.
 MP_ISendRecv          920                  68858.
 MP_Wait              2900
 MP_comm_split          17
 MP_ISend             4004                 145103.
 MP_IRecv             3454                 189268.
 MP_Recv                 4                    456.
 -------------------------------------------------------------------------------


 -------------------------------------------------------------------------------
 -                                                                             -
 -                           R E F E R E N C E S                               -
 -                                                                             -
 -------------------------------------------------------------------------------
 
 CP2K version 7.0 (Development Version), the CP2K developers group (2018).
 CP2K is freely available from https://www.cp2k.org/ .

 Schuett, Ole; Messmer, Peter; Hutter, Juerg; VandeVondele, Joost. 
 Electronic Structure Calculations on Graphics Processing Units, John Wiley & Sons, Ltd, 173-190 (2016). 
 GPU-Accelerated Sparse Matrix-Matrix Multiplication for Linear Scaling Density Functional Theory.
 https://dx.doi.org/10.1002/9781118670712.ch8


 Del Ben, M; Schuett, O; Wentz, T; Messmer, P; Hutter, J;
 VandeVondele, J. 
 COMPUTER PHYSICS COMMUNICATIONS, 187, 120-129 (2015). 
 Enabling simulation at the fifth rung of DFT: Large scale RPA
 calculations with excellent time to solution.
 https://dx.doi.org/10.1016/j.cpc.2014.10.021


 Borstnik, U; VandeVondele, J; Weber, V; Hutter, J. 
 PARALLEL COMPUTING, 40 (5-6), 47-58 (2014). 
 Sparse matrix multiplication: The distributed block-compressed sparse
 row library.
 https://dx.doi.org/10.1016/j.parco.2014.03.012


 Hutter, J; Iannuzzi, M; Schiffmann, F; VandeVondele, J. 
 WILEY INTERDISCIPLINARY REVIEWS-COMPUTATIONAL MOLECULAR SCIENCE, 4 (1), 15-25 (2014). 
 CP2K: atomistic simulations of condensed matter systems.
 https://dx.doi.org/10.1002/wcms.1159


 Del Ben, M; Hutter, J; VandeVondele, J. 
 JOURNAL OF CHEMICAL THEORY AND COMPUTATION, 9 (6), 2654-2671 (2013). 
 Electron Correlation in the Condensed Phase from a Resolution of
 Identity Approach Based on the Gaussian and Plane Waves Scheme.
 https://dx.doi.org/10.1021/ct4002202


 Del Ben, M; Hutter, J; VandeVondele, J. 
 JOURNAL OF CHEMICAL THEORY AND COMPUTATION, 8 (11), 4177-4188 (2012). 
 Second-Order Moller-Plesset Perturbation Theory in the Condensed Phase:
 An Efficient and Massively Parallel Gaussian and Plane Waves Approach.
 https://dx.doi.org/10.1021/ct300531w


 Guidon, M; Hutter, J; VandeVondele, J. 
 JOURNAL OF CHEMICAL THEORY AND COMPUTATION, 5 (11), 3010-3021 (2009). 
 Robust Periodic Hartree-Fock Exchange for Large-Scale Simulations Using
 Gaussian Basis Sets.
 https://dx.doi.org/10.1021/ct900494g


 Guidon, M; Schiffmann, F; Hutter, J; VandeVondele, J. 
 JOURNAL OF CHEMICAL PHYSICS, 128 (21), 214104 (2008). 
 Ab initio molecular dynamics using hybrid density functionals.
 https://dx.doi.org/10.1063/1.2931945


 Frigo, M; Johnson, SG. 
 PROCEEDINGS OF THE IEEE, 93 (2), 216-231 (2005). 
 The design and implementation of FFTW3.
 https://dx.doi.org/10.1109/JPROC.2004.840301


 Lippert, G; Hutter, J; Parrinello, M. 
 THEORETICAL CHEMISTRY ACCOUNTS, 103 (2), 124-140 (1999). 
 The Gaussian and augmented-plane-wave density functional method for ab
 initio molecular dynamics simulations.
 https://dx.doi.org/10.1007/s002140050523


 Krack, M; Parrinello, M. 
 PHYSICAL CHEMISTRY CHEMICAL PHYSICS, 2 (10), 2105-2112 (2000). 
 All-electron ab-initio molecular dynamics.
 https://dx.doi.org/10.1039/b001167n


 Martyna, GJ; Tuckerman, ME. 
 JOURNAL OF CHEMICAL PHYSICS, 110 (6), 2810-2821 (1999). 
 A reciprocal space based method for treating long range interactions in
 ab initio and force-field-based calculations in clusters.
 https://dx.doi.org/10.1063/1.477923


 Perdew, JP; Burke, K; Ernzerhof, M. 
 PHYSICAL REVIEW LETTERS, 77 (18), 3865-3868 (1996). 
 Generalized gradient approximation made simple.
 https://dx.doi.org/10.1103/PhysRevLett.77.3865


 -------------------------------------------------------------------------------
 -                                                                             -
 -                                T I M I N G                                  -
 -                                                                             -
 -------------------------------------------------------------------------------
 SUBROUTINE                       CALLS  ASD         SELF TIME        TOTAL TIME
                                MAXIMUM       AVERAGE  MAXIMUM  AVERAGE  MAXIMUM
 CP2K                                 1  1.0    0.027    0.040   31.026   31.027
 qs_energies                          1  2.0    0.000    0.000   29.832   29.832
 scf_env_do_scf                       1  3.0    0.000    0.000   16.573   16.573
 scf_env_do_scf_inner_loop            8  4.0    0.001    0.001   16.573   16.573
 qs_ks_build_kohn_sham_matrix         9  6.8    0.002    0.003   14.294   14.296
 qs_ks_update_qs_env                  8  5.0    0.000    0.000   13.524   13.526
 rebuild_ks_matrix                    8  6.0    0.000    0.000   13.523   13.525
 mp2_main                             1  3.0    0.000    0.000   12.568   12.573
 pw_transfer                        186  9.5    0.015    0.017   10.166   10.463
 fft_wrap_pw1pw2                    157 10.6    0.002    0.002   10.022   10.318
 fft_wrap_pw1pw2_200                102 11.7    0.581    0.674    9.029    9.449
 compute_vec_Sigma_x_minus_vxc_       1  4.0    0.000    0.000    8.602    8.602
 integrate_four_center                1  5.0    0.002    0.004    7.826    7.826
 fft3d_ps                           157 12.6    3.472    4.114    7.447    7.764
 qs_vxc_create                        9  7.8    0.000    0.000    6.071    6.071
 xc_vxc_pw_create                     8  9.0    0.085    0.113    6.071    6.071
 calc_screening_functions             1  6.0    2.197    2.868    3.106    4.051
 mp2_gpw_main                         1  4.0    0.000    0.000    3.955    3.955
 rs_pw_transfer                      92  9.3    0.002    0.002    3.793    3.913
 rpa_ri_compute_en                    1  5.0    0.000    0.000    3.623    3.623
 rpa_num_int                          1  6.0    0.000    0.001    3.622    3.622
 mp_alltoall_z22v                   157 14.6    2.801    3.409    2.801    3.409
 qs_rho_update_rho                    9  5.0    0.000    0.000    3.323    3.324
 calculate_rho_elec                   9  6.0    0.025    0.186    3.310    3.310
 density_rs2pw                        9  7.0    0.001    0.001    3.056    3.146
 xc_rho_set_and_dset_create           8 10.0    0.052    0.078    2.720    3.016
 mp_sum_l                          2968 10.8    1.520    2.595    1.520    2.595
 yz_to_x                             79 13.2    0.505    0.641    2.085    2.443
 integrate_four_center_load           1  6.0    0.000    0.000    1.398    2.419
 hfx_load_balance                     1  7.0    0.000    0.000    1.398    2.419
 sum_up_and_integrate                 9  7.8    0.023    0.028    2.306    2.416
 prepare_gapw_den                     9  7.8    0.000    0.000    2.325    2.405
 integrate_v_rspace                   9  8.8    0.008    0.098    2.283    2.398
 hfx_load_balance_range               1  8.0    0.001    0.023    1.353    2.374
 potential_pw2rs                      9  9.8    0.002    0.002    2.266    2.272
 powell_optimize                 367428  7.0    1.610    2.124    1.610    2.124
 mp_waitany                        1604 11.3    1.551    2.120    1.551    2.120
 x_to_yz                             78 14.0    0.665    0.836    1.885    2.093
 mp_sync                             71  8.6    1.982    2.081    1.982    2.081
 integrate_four_center_main           1  6.0    0.000    0.000    0.085    2.035
 integrate_four_center_bin          128  7.0    0.085    2.035    0.085    2.035
 put_rho0_on_grid                     9  8.8    0.014    0.017    1.650    1.730
 mp_sum_d                           927  5.7    1.448    1.714    1.448    1.714
 calc_pair_dist_radii                 1  6.0    0.578    0.723    1.279    1.664
 rs_pw_transfer_PW2RS_200            19 10.6    0.771    0.980    1.485    1.618
 rs_pw_transfer_RS2PW_200            19  9.8    0.735    0.901    1.472    1.585
 pw_gather_p                         79 12.2    1.017    1.415    1.017    1.415
 mp_sum_dm                           33  7.7    0.729    1.303    0.729    1.303
 pw_scatter_p                        78 13.0    0.944    1.183    0.944    1.183
 dbcsr_multiply_generic             599  9.9    0.021    0.027    0.971    1.103
 qs_init_subsys                       1  2.0    0.004    0.005    1.081    1.082
 mp_sum_dv                           50  8.3    0.685    1.024    0.685    1.024
 GW_postprocessing                    1  7.0    0.000    0.000    0.995    0.995
 compute_self_energy_im_time_gw       1  8.0    0.001    0.001    0.995    0.995
 integrate_vhg0_rspace                9  7.8    0.031    0.038    0.925    0.950
 qs_env_setup                         1  3.0    0.000    0.000    0.811    0.904
 qs_env_rebuild_pw_env                2  3.5    0.000    0.000    0.810    0.903
 pw_env_rebuild                       1  5.0    0.001    0.003    0.810    0.903
 calculate_vxc_atom                   9  7.8    0.007    0.133    0.862    0.862
 pw_poisson_solve                    10  7.4    0.203    0.244    0.804    0.804
 pw_grid_setup                        5  6.0    0.000    0.000    0.725    0.726
 pw_grid_setup_internal               5  7.0    0.014    0.017    0.725    0.726
 gaVxcgb_GC                           8  9.0    0.030    0.710    0.030    0.710
 multiply_cannon                    599 10.9    0.065    0.079    0.493    0.678
 calculate_rho_atom                   9  8.8    0.205    0.635    0.205    0.635
 get_l_sq_wghts_cos_tf_t_to_w         1  7.0    0.312    0.615    0.622    0.633
 get_l_sq_wghts_sin_tf_t_to_w         1  7.0    0.315    0.628    0.626    0.628
 get_l_sq_wghts_cos_tf_w_to_t         1  7.0    0.313    0.624    0.626    0.626
 -------------------------------------------------------------------------------

 The number of warnings for this run is : 3
 
 -------------------------------------------------------------------------------
  **** **** ******  **  PROGRAM ENDED AT                 2019-05-31 10:41:24.357
 ***** ** ***  *** **   PROGRAM RAN ON                                    tcopt4
 **    ****   ******    PROGRAM RAN BY                                   wilhelm
 ***** **    ** ** **   PROGRAM PROCESS ID                                 42383
  **** **  *******  **  PROGRAM STOPPED IN /data/wilhelm/2_job_test/11_GW100/3_c
                                           alcs/02_Ne
