 DBCSR| CPU Multiplication driver                                           BLAS
 DBCSR| Multrec recursion limit                                              512
 DBCSR| Multiplication stack size                                           1000
 DBCSR| Maximum elements for images                                    UNLIMITED
 DBCSR| Multiplicative factor virtual images                                   1
 DBCSR| Use multiplication densification                                       T
 DBCSR| Multiplication size stacks                                             3
 DBCSR| Number of 3D layers                                               SINGLE
 DBCSR| Use MPI memory allocation                                              T
 DBCSR| Use RMA algorithm                                                      F
 DBCSR| Use Communication thread                                               T
 DBCSR| Communication thread load                                             87


  **** **** ******  **  PROGRAM STARTED AT               2019-05-31 17:52:10.679
 ***** ** ***  *** **   PROGRAM STARTED ON                                tcopt4
 **    ****   ******    PROGRAM STARTED BY                               wilhelm
 ***** **    ** ** **   PROGRAM PROCESS ID                                 87235
  **** **  *******  **  PROGRAM STARTED IN /data/wilhelm/2_job_test/11_GW100/3_c
                                           alcs/62_NaCl

 CP2K| version string:                    CP2K version 7.0 (Development Version)
 CP2K| source code revision number:                                  git:026fb12
 CP2K| cp2kflags: libint fftw3 libxc pexsi elpa=201705 parallel mpi3 scalapack q
 CP2K|            uip libderiv_max_am1=5 libint_max_am=6
 CP2K| is freely available from                            https://www.cp2k.org/
 CP2K| Program compiled at                         Sat May 11 13:15:02 CEST 2019
 CP2K| Program compiled on                                                tcopt4
 CP2K| Program compiled for                            local_valgrind_March_2019
 CP2K| Data directory path              /data/wilhelm/1_git_repository/cp2k/data
 CP2K| Input file name                                                    GW.inp

 GLOBAL| Force Environment number                                              1
 GLOBAL| Basis set file name                              BASIS_def2_QZVP_RI_ALL
 GLOBAL| Potential file name                                           POTENTIAL
 GLOBAL| MM Potential file name                                     MM_POTENTIAL
 GLOBAL| Coordinate file name                                        62_NaCl.xyz
 GLOBAL| Method name                                                        CP2K
 GLOBAL| Project name                                                   ALL_ELEC
 GLOBAL| Preferred FFT library                                             FFTW3
 GLOBAL| Preferred diagonalization lib.                                       SL
 GLOBAL| Run type                                                         ENERGY
 GLOBAL| All-to-all communication in single precision                          F
 GLOBAL| FFTs using library dependent lengths                                  F
 GLOBAL| Global print level                                               MEDIUM
 GLOBAL| MPI I/O enabled                                                       T
 GLOBAL| Total number of message passing processes                            40
 GLOBAL| Number of threads for this process                                    1
 GLOBAL| This output is from process                                           0
 GLOBAL| CPU model name :  Intel(R) Xeon(R) CPU E5-2697 v3 @ 2.60GHz

 MEMORY| system memory details [Kb]
 MEMORY|                        rank 0           min           max       average
 MEMORY| MemTotal            396954008     396954008     396954008     396954008
 MEMORY| MemFree             376590692     376590692     376590692     376590692
 MEMORY| Buffers                341504        341504        341504        341504
 MEMORY| Cached               16156748      16156748      16156748      16156748
 MEMORY| Slab                   611388        611388        611388        611388
 MEMORY| SReclaimable           471844        471844        471844        471844
 MEMORY| MemLikelyFree       393560788     393560788     393560788     393560788


 *** Fundamental physical constants (SI units) ***

 *** Literature: B. J. Mohr and B. N. Taylor,
 ***             CODATA recommended values of the fundamental physical
 ***             constants: 2006, Web Version 5.1
 ***             http://physics.nist.gov/constants

 Speed of light in vacuum [m/s]                             2.99792458000000E+08
 Magnetic constant or permeability of vacuum [N/A**2]       1.25663706143592E-06
 Electric constant or permittivity of vacuum [F/m]          8.85418781762039E-12
 Planck constant (h) [J*s]                                  6.62606896000000E-34
 Planck constant (h-bar) [J*s]                              1.05457162825177E-34
 Elementary charge [C]                                      1.60217648700000E-19
 Electron mass [kg]                                         9.10938215000000E-31
 Electron g factor [ ]                                     -2.00231930436220E+00
 Proton mass [kg]                                           1.67262163700000E-27
 Fine-structure constant                                    7.29735253760000E-03
 Rydberg constant [1/m]                                     1.09737315685270E+07
 Avogadro constant [1/mol]                                  6.02214179000000E+23
 Boltzmann constant [J/K]                                   1.38065040000000E-23
 Atomic mass unit [kg]                                      1.66053878200000E-27
 Bohr radius [m]                                            5.29177208590000E-11

 *** Conversion factors ***

 [u] -> [a.u.]                                              1.82288848426455E+03
 [Angstrom] -> [Bohr] = [a.u.]                              1.88972613288564E+00
 [a.u.] = [Bohr] -> [Angstrom]                              5.29177208590000E-01
 [a.u.] -> [s]                                              2.41888432650478E-17
 [a.u.] -> [fs]                                             2.41888432650478E-02
 [a.u.] -> [J]                                              4.35974393937059E-18
 [a.u.] -> [N]                                              8.23872205491840E-08
 [a.u.] -> [K]                                              3.15774647902944E+05
 [a.u.] -> [kJ/mol]                                         2.62549961709828E+03
 [a.u.] -> [kcal/mol]                                       6.27509468713739E+02
 [a.u.] -> [Pa]                                             2.94210107994716E+13
 [a.u.] -> [bar]                                            2.94210107994716E+08
 [a.u.] -> [atm]                                            2.90362800883016E+08
 [a.u.] -> [eV]                                             2.72113838565563E+01
 [a.u.] -> [Hz]                                             6.57968392072181E+15
 [a.u.] -> [1/cm] (wave numbers)                            2.19474631370540E+05
 [a.u./Bohr**2] -> [1/cm]                                   5.14048714338585E+03
 

 CELL_TOP| Volume [angstrom^3]:                                         4096.000
 CELL_TOP| Vector a [angstrom    16.000     0.000     0.000    |a| =      16.000
 CELL_TOP| Vector b [angstrom     0.000    16.000     0.000    |b| =      16.000
 CELL_TOP| Vector c [angstrom     0.000     0.000    16.000    |c| =      16.000
 CELL_TOP| Angle (b,c), alpha [degree]:                                   90.000
 CELL_TOP| Angle (a,c), beta  [degree]:                                   90.000
 CELL_TOP| Angle (a,b), gamma [degree]:                                   90.000
 CELL_TOP| Numerically orthorhombic:                                         YES

 GENERATE|  Preliminary Number of Bonds generated:                             0
 GENERATE|  Achieved consistency in connectivity generation.

 CELL| Volume [angstrom^3]:                                             4096.000
 CELL| Vector a [angstrom]:      16.000     0.000     0.000    |a| =      16.000
 CELL| Vector b [angstrom]:       0.000    16.000     0.000    |b| =      16.000
 CELL| Vector c [angstrom]:       0.000     0.000    16.000    |c| =      16.000
 CELL| Angle (b,c), alpha [degree]:                                       90.000
 CELL| Angle (a,c), beta  [degree]:                                       90.000
 CELL| Angle (a,b), gamma [degree]:                                       90.000
 CELL| Numerically orthorhombic:                                             YES

 CELL_REF| Volume [angstrom^3]:                                         4096.000
 CELL_REF| Vector a [angstrom    16.000     0.000     0.000    |a| =      16.000
 CELL_REF| Vector b [angstrom     0.000    16.000     0.000    |b| =      16.000
 CELL_REF| Vector c [angstrom     0.000     0.000    16.000    |c| =      16.000
 CELL_REF| Angle (b,c), alpha [degree]:                                   90.000
 CELL_REF| Angle (a,c), beta  [degree]:                                   90.000
 CELL_REF| Angle (a,b), gamma [degree]:                                   90.000
 CELL_REF| Numerically orthorhombic:                                         YES

 *******************************************************************************
 *******************************************************************************
 **                                                                           **
 **     #####                         ##              ##                      **
 **    ##   ##            ##          ##              ##                      **
 **   ##     ##                       ##            ######                    **
 **   ##     ##  ##   ##  ##   #####  ##  ##   ####   ##    #####    #####    **
 **   ##     ##  ##   ##  ##  ##      ## ##   ##      ##   ##   ##  ##   ##   **
 **   ##  ## ##  ##   ##  ##  ##      ####     ###    ##   ######   ######    **
 **    ##  ###   ##   ##  ##  ##      ## ##      ##   ##   ##       ##        **
 **     #######   #####   ##   #####  ##  ##  ####    ##    #####   ##        **
 **           ##                                                    ##        **
 **                                                                           **
 **                                                ... make the atoms dance   **
 **                                                                           **
 **            Copyright (C) by CP2K developers group (2000 - 2019)           **
 **                                                                           **
 *******************************************************************************

 DFT| Spin restricted Kohn-Sham (RKS) calculation                            RKS
 DFT| Multiplicity                                                             1
 DFT| Number of spin states                                                    1
 DFT| Charge                                                                   0
 DFT| Self-interaction correction (SIC)                                       NO
 DFT| Cutoffs: density                                              1.000000E-10
 DFT|          gradient                                             1.000000E-10
 DFT|          tau                                                  1.000000E-10
 DFT|          cutoff_smoothing_range                               0.000000E+00
 DFT| XC density smoothing                                                  NONE
 DFT| XC derivatives                                                          PW
 FUNCTIONAL| ROUTINE=NEW
 FUNCTIONAL| PBE:
 FUNCTIONAL| J.P.Perdew, K.Burke, M.Ernzerhof, Phys. Rev. Letter, vol. 77, n 18,
 FUNCTIONAL|  pp. 3865-3868, (1996){spin unpolarized}                           

 QS| Method:                                                                GAPW
 QS| Density plane wave grid type                        NON-SPHERICAL FULLSPACE
 QS| Number of grid levels:                                                    4
 QS| Density cutoff [a.u.]:                                                200.0
 QS| Multi grid cutoff [a.u.]: 1) grid level                               200.0
 QS|                           2) grid level                                66.7
 QS|                           3) grid level                                22.2
 QS|                           4) grid level                                 7.4
 QS| Grid level progression factor:                                          3.0
 QS| Relative density cutoff [a.u.]:                                        25.0
 QS| Consistent realspace mapping and integration 
 QS| Interaction thresholds: eps_pgf_orb:                                1.0E-05
 QS|                         eps_filter_matrix:                          0.0E+00
 QS|                         eps_core_charge:                            1.0E-12
 QS|                         eps_rho_gspace:                             1.0E-10
 QS|                         eps_rho_rspace:                             1.0E-10
 QS|                         eps_gvg_rspace:                             1.0E-05
 QS|                         eps_ppl:                                    1.0E-02
 QS|                         eps_ppnl:                                   1.0E-07
 QS| GAPW|                   eps_fit:                                    1.0E-04
 QS| GAPW|                   eps_iso:                                    1.0E-12
 QS| GAPW|                   eps_svd:                                    1.0E-08
 QS| GAPW|                   eps_cpc:                                    1.0E-10
 QS| GAPW|   atom-r-grid: quadrature:                 GC_LOG                        
 QS| GAPW|      atom-s-grid:  max l :                                          8
 QS| GAPW|      max_l_rho0 :                                                   2


 ATOMIC KIND INFORMATION

  1. Atomic kind: Na                                    Number of atoms:       1

     Orbital Basis Set                                                 def2-QZVP

       Number of orbital shell sets:                                          18
       Number of orbital shells:                                              18
       Number of primitive Cartesian functions:                               36
       Number of Cartesian basis functions:                                   52
       Number of spherical basis functions:                                   46
       Norm type:                                                              2

       Normalised Cartesian orbitals:

                        Set   Shell   Orbital            Exponent    Coefficient

                          1       1    1s           379852.200810       0.239571
                                                     56886.006378       0.448370
                                                     12942.701838       0.776316
                                                      3664.301790       1.267092
                                                      1194.741750       1.963166
                                                       430.981929       2.858391
                                                       167.831694       3.786259
                                                        69.306669       4.246459
                                                        29.951171       3.523436
                                                        13.380791       1.618647

                          2       1    1s              121.740113       0.883178
                                                        37.044143       2.885386
                                                        13.995423       3.827570

                          3       1    1s                5.982780       2.726386

                          4       1    1s                2.483046       1.409771

                          5       1    1s                1.045251       0.736759

                          6       1    1s                0.438756       0.384218

                          7       1    1s                0.065596       0.092378

                          8       1    1s                0.030562       0.052095

                          9       1    1s                0.015509       0.031322

                         10       1    1px             690.776270       1.967483
                                                       163.828061       2.760793
                                                        52.876461       3.452362
                                                        19.812270       3.702527
                                                         8.132038       3.232498
                                                         3.496907       2.059200
                                                         1.511724       0.903688
                                                         0.644793       0.241500
                         10       1    1py             690.776270       1.967483
                                                       163.828061       2.760793
                                                        52.876461       3.452362
                                                        19.812270       3.702527
                                                         8.132038       3.232498
                                                         3.496907       2.059200
                                                         1.511724       0.903688
                                                         0.644793       0.241500
                         10       1    1pz             690.776270       1.967483
                                                       163.828061       2.760793
                                                        52.876461       3.452362
                                                        19.812270       3.702527
                                                         8.132038       3.232498
                                                         3.496907       2.059200
                                                         1.511724       0.903688
                                                         0.644793       0.241500

                         11       1    1px               0.261458       0.266497
                         11       1    1py               0.261458       0.266497
                         11       1    1pz               0.261458       0.266497

                         12       1    1px               0.117047       0.097587
                         12       1    1py               0.117047       0.097587
                         12       1    1pz               0.117047       0.097587

                         13       1    1px               0.040495       0.025893
                         13       1    1py               0.040495       0.025893
                         13       1    1pz               0.040495       0.025893

                         14       1    1px               0.015667       0.007901
                         14       1    1py               0.015667       0.007901
                         14       1    1pz               0.015667       0.007901

                         15       1    1dx2              2.900000      10.607327
                         15       1    1dxy              2.900000      18.372429
                         15       1    1dxz              2.900000      18.372429
                         15       1    1dy2              2.900000      10.607327
                         15       1    1dyz              2.900000      18.372429
                         15       1    1dz2              2.900000      10.607327

                         16       1    1dx2              0.230000       0.125728
                         16       1    1dxy              0.230000       0.217768
                         16       1    1dxz              0.230000       0.217768
                         16       1    1dy2              0.230000       0.125728
                         16       1    1dyz              0.230000       0.217768
                         16       1    1dz2              0.230000       0.125728

                         17       1    1dx2              0.075700       0.017982
                         17       1    1dxy              0.075700       0.031145
                         17       1    1dxz              0.075700       0.031145
                         17       1    1dy2              0.075700       0.017982
                         17       1    1dyz              0.075700       0.031145
                         17       1    1dz2              0.075700       0.017982

                         18       1    1fx3              0.135000       0.016263
                         18       1    1fx2y             0.135000       0.036366
                         18       1    1fx2z             0.135000       0.036366
                         18       1    1fxy2             0.135000       0.036366
                         18       1    1fxyz             0.135000       0.062987
                         18       1    1fxz2             0.135000       0.036366
                         18       1    1fy3              0.135000       0.016263
                         18       1    1fy2z             0.135000       0.036366
                         18       1    1fyz2             0.135000       0.036366
                         18       1    1fz3              0.135000       0.016263

     RI Auxiliary Basis Set                                                RI-5Z

       Number of orbital shell sets:                                          48
       Number of orbital shells:                                              48
       Number of primitive Cartesian functions:                               48
       Number of Cartesian basis functions:                                  335
       Number of spherical basis functions:                                  230
       Norm type:                                                              2

       Normalised Cartesian orbitals:

                        Set   Shell   Orbital            Exponent    Coefficient

                          1       1    1s              419.616000      66.076818

                          2       1    1s               76.184400      18.378482

                          3       1    1s               36.109400      10.498453

                          4       1    1s               10.679900       4.210518

                          5       1    1s                5.620630       2.601650

                          6       1    1s                1.925560       1.165005

                          7       1    1s                0.852646       0.632392

                          8       1    1s                0.387552       0.350072

                          9       1    1s                0.221264       0.229929

                         10       1    1s                0.139657       0.162820

                         11       1    1s                0.084509       0.111709

                         12       1    1s                0.049376       0.074653

                         13       1    1px              90.027500     395.283854
                         13       1    1py              90.027500     395.283854
                         13       1    1pz              90.027500     395.283854

                         14       1    1px              22.833000      71.144906
                         14       1    1py              22.833000      71.144906
                         14       1    1pz              22.833000      71.144906

                         15       1    1px               8.495520      20.674144
                         15       1    1py               8.495520      20.674144
                         15       1    1pz               8.495520      20.674144

                         16       1    1px               3.996960       8.055682
                         16       1    1py               3.996960       8.055682
                         16       1    1pz               3.996960       8.055682

                         17       1    1px               1.854640       3.085067
                         17       1    1py               1.854640       3.085067
                         17       1    1pz               1.854640       3.085067

                         18       1    1px               0.833572       1.135322
                         18       1    1py               0.833572       1.135322
                         18       1    1pz               0.833572       1.135322

                         19       1    1px               0.404155       0.459330
                         19       1    1py               0.404155       0.459330
                         19       1    1pz               0.404155       0.459330

                         20       1    1px               0.220763       0.215699
                         20       1    1py               0.220763       0.215699
                         20       1    1pz               0.220763       0.215699

                         21       1    1px               0.140095       0.122171
                         21       1    1py               0.140095       0.122171
                         21       1    1pz               0.140095       0.122171

                         22       1    1px               0.094966       0.075146
                         22       1    1py               0.094966       0.075146
                         22       1    1pz               0.094966       0.075146

                         23       1    1px               0.055505       0.038402
                         23       1    1py               0.055505       0.038402
                         23       1    1pz               0.055505       0.038402

                         24       1    1dx2             24.684200     449.927776
                         24       1    1dxy             24.684200     779.297768
                         24       1    1dxz             24.684200     779.297768
                         24       1    1dy2             24.684200     449.927776
                         24       1    1dyz             24.684200     779.297768
                         24       1    1dz2             24.684200     449.927776

                         25       1    1dx2              7.308650      53.471762
                         25       1    1dxy              7.308650      92.615808
                         25       1    1dxz              7.308650      92.615808
                         25       1    1dy2              7.308650      53.471762
                         25       1    1dyz              7.308650      92.615808
                         25       1    1dz2              7.308650      53.471762

                         26       1    1dx2              2.161400       6.341558
                         26       1    1dxy              2.161400      10.983901
                         26       1    1dxz              2.161400      10.983901
                         26       1    1dy2              2.161400       6.341558
                         26       1    1dyz              2.161400      10.983901
                         26       1    1dz2              2.161400       6.341558

                         27       1    1dx2              1.015980       1.692226
                         27       1    1dxy              1.015980       2.931022
                         27       1    1dxz              1.015980       2.931022
                         27       1    1dy2              1.015980       1.692226
                         27       1    1dyz              1.015980       2.931022
                         27       1    1dz2              1.015980       1.692226

                         28       1    1dx2              0.460342       0.423448
                         28       1    1dxy              0.460342       0.733434
                         28       1    1dxz              0.460342       0.733434
                         28       1    1dy2              0.460342       0.423448
                         28       1    1dyz              0.460342       0.733434
                         28       1    1dz2              0.460342       0.423448

                         29       1    1dx2              0.264182       0.160229
                         29       1    1dxy              0.264182       0.277524
                         29       1    1dxz              0.264182       0.277524
                         29       1    1dy2              0.264182       0.160229
                         29       1    1dyz              0.264182       0.277524
                         29       1    1dz2              0.264182       0.160229

                         30       1    1dx2              0.163262       0.069017
                         30       1    1dxy              0.163262       0.119542
                         30       1    1dxz              0.163262       0.119542
                         30       1    1dy2              0.163262       0.069017
                         30       1    1dyz              0.163262       0.119542
                         30       1    1dz2              0.163262       0.069017

                         31       1    1dx2              0.112281       0.035846
                         31       1    1dxy              0.112281       0.062088
                         31       1    1dxz              0.112281       0.062088
                         31       1    1dy2              0.112281       0.035846
                         31       1    1dyz              0.112281       0.062088
                         31       1    1dz2              0.112281       0.035846

                         32       1    1dx2              0.071736       0.016366
                         32       1    1dxy              0.071736       0.028347
                         32       1    1dxz              0.071736       0.028347
                         32       1    1dy2              0.071736       0.016366
                         32       1    1dyz              0.071736       0.028347
                         32       1    1dz2              0.071736       0.016366

                         33       1    1fx3              5.498600      68.158769
                         33       1    1fx2y             5.498600     152.407640
                         33       1    1fx2z             5.498600     152.407640
                         33       1    1fxy2             5.498600     152.407640
                         33       1    1fxyz             5.498600     263.977777
                         33       1    1fxz2             5.498600     152.407640
                         33       1    1fy3              5.498600      68.158769
                         33       1    1fy2z             5.498600     152.407640
                         33       1    1fyz2             5.498600     152.407640
                         33       1    1fz3              5.498600      68.158769

                         34       1    1fx3              1.897290       6.219498
                         34       1    1fx2y             1.897290      13.907220
                         34       1    1fx2z             1.897290      13.907220
                         34       1    1fxy2             1.897290      13.907220
                         34       1    1fxyz             1.897290      24.088011
                         34       1    1fxz2             1.897290      13.907220
                         34       1    1fy3              1.897290       6.219498
                         34       1    1fy2z             1.897290      13.907220
                         34       1    1fyz2             1.897290      13.907220
                         34       1    1fz3              1.897290       6.219498

                         35       1    1fx3              0.906002       1.178949
                         35       1    1fx2y             0.906002       2.636210
                         35       1    1fx2z             0.906002       2.636210
                         35       1    1fxy2             0.906002       2.636210
                         35       1    1fxyz             0.906002       4.566050
                         35       1    1fxz2             0.906002       2.636210
                         35       1    1fy3              0.906002       1.178949
                         35       1    1fy2z             0.906002       2.636210
                         35       1    1fyz2             0.906002       2.636210
                         35       1    1fz3              0.906002       1.178949

                         36       1    1fx3              0.448908       0.242833
                         36       1    1fx2y             0.448908       0.542992
                         36       1    1fx2z             0.448908       0.542992
                         36       1    1fxy2             0.448908       0.542992
                         36       1    1fxyz             0.448908       0.940490
                         36       1    1fxz2             0.448908       0.542992
                         36       1    1fy3              0.448908       0.242833
                         36       1    1fy2z             0.448908       0.542992
                         36       1    1fyz2             0.448908       0.542992
                         36       1    1fz3              0.448908       0.242833

                         37       1    1fx3              0.279331       0.083507
                         37       1    1fx2y             0.279331       0.186727
                         37       1    1fx2z             0.279331       0.186727
                         37       1    1fxy2             0.279331       0.186727
                         37       1    1fxyz             0.279331       0.323421
                         37       1    1fxz2             0.279331       0.186727
                         37       1    1fy3              0.279331       0.083507
                         37       1    1fy2z             0.279331       0.186727
                         37       1    1fyz2             0.279331       0.186727
                         37       1    1fz3              0.279331       0.083507

                         38       1    1fx3              0.169807       0.027249
                         38       1    1fx2y             0.169807       0.060931
                         38       1    1fx2z             0.169807       0.060931
                         38       1    1fxy2             0.169807       0.060931
                         38       1    1fxyz             0.169807       0.105536
                         38       1    1fxz2             0.169807       0.060931
                         38       1    1fy3              0.169807       0.027249
                         38       1    1fy2z             0.169807       0.060931
                         38       1    1fyz2             0.169807       0.060931
                         38       1    1fz3              0.169807       0.027249

                         39       1    1fx3              0.100110       0.008299
                         39       1    1fx2y             0.100110       0.018557
                         39       1    1fx2z             0.100110       0.018557
                         39       1    1fxy2             0.100110       0.018557
                         39       1    1fxyz             0.100110       0.032142
                         39       1    1fxz2             0.100110       0.018557
                         39       1    1fy3              0.100110       0.008299
                         39       1    1fy2z             0.100110       0.018557
                         39       1    1fyz2             0.100110       0.018557
                         39       1    1fz3              0.100110       0.008299

                         40       1    1gx4              1.972760       7.209242
                         40       1    1gx3y             1.972760      19.073862
                         40       1    1gx3z             1.972760      19.073862
                         40       1    1gx2y2            1.972760      24.624250
                         40       1    1gx2yz            1.972760      42.650453
                         40       1    1gx2z2            1.972760      24.624250
                         40       1    1gxy3             1.972760      19.073862
                         40       1    1gxy2z            1.972760      42.650453
                         40       1    1gxyz2            1.972760      42.650453
                         40       1    1gxz3             1.972760      19.073862
                         40       1    1gy4              1.972760       7.209242
                         40       1    1gy3z             1.972760      19.073862
                         40       1    1gy2z2            1.972760      24.624250
                         40       1    1gyz3             1.972760      19.073862
                         40       1    1gz4              1.972760       7.209242

                         41       1    1gx4              0.831274       0.669471
                         41       1    1gx3y             0.831274       1.771255
                         41       1    1gx3z             0.831274       1.771255
                         41       1    1gx2y2            0.831274       2.286680
                         41       1    1gx2yz            0.831274       3.960646
                         41       1    1gx2z2            0.831274       2.286680
                         41       1    1gxy3             0.831274       1.771255
                         41       1    1gxy2z            0.831274       3.960646
                         41       1    1gxyz2            0.831274       3.960646
                         41       1    1gxz3             0.831274       1.771255
                         41       1    1gy4              0.831274       0.669471
                         41       1    1gy3z             0.831274       1.771255
                         41       1    1gy2z2            0.831274       2.286680
                         41       1    1gyz3             0.831274       1.771255
                         41       1    1gz4              0.831274       0.669471

                         42       1    1gx4              0.444306       0.119553
                         42       1    1gx3y             0.444306       0.316308
                         42       1    1gx3z             0.444306       0.316308
                         42       1    1gx2y2            0.444306       0.408352
                         42       1    1gx2yz            0.444306       0.707287
                         42       1    1gx2z2            0.444306       0.408352
                         42       1    1gxy3             0.444306       0.316308
                         42       1    1gxy2z            0.444306       0.707287
                         42       1    1gxyz2            0.444306       0.707287
                         42       1    1gxz3             0.444306       0.316308
                         42       1    1gy4              0.444306       0.119553
                         42       1    1gy3z             0.444306       0.316308
                         42       1    1gy2z2            0.444306       0.408352
                         42       1    1gyz3             0.444306       0.316308
                         42       1    1gz4              0.444306       0.119553

                         43       1    1gx4              0.243401       0.022847
                         43       1    1gx3y             0.243401       0.060446
                         43       1    1gx3z             0.243401       0.060446
                         43       1    1gx2y2            0.243401       0.078036
                         43       1    1gx2yz            0.243401       0.135162
                         43       1    1gx2z2            0.243401       0.078036
                         43       1    1gxy3             0.243401       0.060446
                         43       1    1gxy2z            0.243401       0.135162
                         43       1    1gxyz2            0.243401       0.135162
                         43       1    1gxz3             0.243401       0.060446
                         43       1    1gy4              0.243401       0.022847
                         43       1    1gy3z             0.243401       0.060446
                         43       1    1gy2z2            0.243401       0.078036
                         43       1    1gyz3             0.243401       0.060446
                         43       1    1gz4              0.243401       0.022847

                         44       1    1gx4              0.121353       0.003370
                         44       1    1gx3y             0.121353       0.008915
                         44       1    1gx3z             0.121353       0.008915
                         44       1    1gx2y2            0.121353       0.011509
                         44       1    1gx2yz            0.121353       0.019935
                         44       1    1gx2z2            0.121353       0.011509
                         44       1    1gxy3             0.121353       0.008915
                         44       1    1gxy2z            0.121353       0.019935
                         44       1    1gxyz2            0.121353       0.019935
                         44       1    1gxz3             0.121353       0.008915
                         44       1    1gy4              0.121353       0.003370
                         44       1    1gy3z             0.121353       0.008915
                         44       1    1gy2z2            0.121353       0.011509
                         44       1    1gyz3             0.121353       0.008915
                         44       1    1gz4              0.121353       0.003370

                         45       1    1hx5              1.196610       1.329506
                         45       1    1hx4y             1.196610       3.988517
                         45       1    1hx4z             1.196610       3.988517
                         45       1    1hx3y2            1.196610       6.092561
                         45       1    1hx3yz            1.196610      10.552624
                         45       1    1hx3z2            1.196610       6.092561
                         45       1    1hx2y3            1.196610       6.092561
                         45       1    1hx2y2z           1.196610      13.623380
                         45       1    1hx2yz2           1.196610      13.623380
                         45       1    1hx2z3            1.196610       6.092561
                         45       1    1hxy4             1.196610       3.988517
                         45       1    1hxy3z            1.196610      10.552624
                         45       1    1hxy2z2           1.196610      13.623380
                         45       1    1hxyz3            1.196610      10.552624
                         45       1    1hxz4             1.196610       3.988517
                         45       1    1hy5              1.196610       1.329506
                         45       1    1hy4z             1.196610       3.988517
                         45       1    1hy3z2            1.196610       6.092561
                         45       1    1hy2z3            1.196610       6.092561
                         45       1    1hyz4             1.196610       3.988517
                         45       1    1hz5              1.196610       1.329506

                         46       1    1hx5              0.515542       0.086139
                         46       1    1hx4y             0.515542       0.258418
                         46       1    1hx4z             0.515542       0.258418
                         46       1    1hx3y2            0.515542       0.394741
                         46       1    1hx3yz            0.515542       0.683711
                         46       1    1hx3z2            0.515542       0.394741
                         46       1    1hx2y3            0.515542       0.394741
                         46       1    1hx2y2z           0.515542       0.882667
                         46       1    1hx2yz2           0.515542       0.882667
                         46       1    1hx2z3            0.515542       0.394741
                         46       1    1hxy4             0.515542       0.258418
                         46       1    1hxy3z            0.515542       0.683711
                         46       1    1hxy2z2           0.515542       0.882667
                         46       1    1hxyz3            0.515542       0.683711
                         46       1    1hxz4             0.515542       0.258418
                         46       1    1hy5              0.515542       0.086139
                         46       1    1hy4z             0.515542       0.258418
                         46       1    1hy3z2            0.515542       0.394741
                         46       1    1hy2z3            0.515542       0.394741
                         46       1    1hyz4             0.515542       0.258418
                         46       1    1hz5              0.515542       0.086139

                         47       1    1hx5              0.195597       0.003692
                         47       1    1hx4y             0.195597       0.011076
                         47       1    1hx4z             0.195597       0.011076
                         47       1    1hx3y2            0.195597       0.016919
                         47       1    1hx3yz            0.195597       0.029305
                         47       1    1hx3z2            0.195597       0.016919
                         47       1    1hx2y3            0.195597       0.016919
                         47       1    1hx2y2z           0.195597       0.037833
                         47       1    1hx2yz2           0.195597       0.037833
                         47       1    1hx2z3            0.195597       0.016919
                         47       1    1hxy4             0.195597       0.011076
                         47       1    1hxy3z            0.195597       0.029305
                         47       1    1hxy2z2           0.195597       0.037833
                         47       1    1hxyz3            0.195597       0.029305
                         47       1    1hxz4             0.195597       0.011076
                         47       1    1hy5              0.195597       0.003692
                         47       1    1hy4z             0.195597       0.011076
                         47       1    1hy3z2            0.195597       0.016919
                         47       1    1hy2z3            0.195597       0.016919
                         47       1    1hyz4             0.195597       0.011076
                         47       1    1hz5              0.195597       0.003692

                         48       1    1ix6              0.533694       0.042464
                         48       1    1ix5y             0.533694       0.140838
                         48       1    1ix5z             0.533694       0.140838
                         48       1    1ix4y2            0.533694       0.243939
                         48       1    1ix4yz            0.533694       0.422515
                         48       1    1ix4z2            0.533694       0.243939
                         48       1    1ix3y3            0.533694       0.288632
                         48       1    1ix3y2z           0.533694       0.645402
                         48       1    1ix3yz2           0.533694       0.645402
                         48       1    1ix3z3            0.533694       0.288632
                         48       1    1ix2y4            0.533694       0.243939
                         48       1    1ix2y3z           0.533694       0.645402
                         48       1    1ix2y2z2          0.533694       0.833210
                         48       1    1ix2yz3           0.533694       0.645402
                         48       1    1ix2z4            0.533694       0.243939
                         48       1    1ixy5             0.533694       0.140838
                         48       1    1ixy4z            0.533694       0.422515
                         48       1    1ixy3z2           0.533694       0.645402
                         48       1    1ixy2z3           0.533694       0.645402
                         48       1    1ixyz4            0.533694       0.422515
                         48       1    1ixz5             0.533694       0.140838
                         48       1    1iy6              0.533694       0.042464
                         48       1    1iy5z             0.533694       0.140838
                         48       1    1iy4z2            0.533694       0.243939
                         48       1    1iy3z3            0.533694       0.288632
                         48       1    1iy2z4            0.533694       0.243939
                         48       1    1iyz5             0.533694       0.140838
                         48       1    1iz6              0.533694       0.042464

     The atoms of this atomic kind are PAW atoms (GAPW):
       Hard Gaussian function radius:                                      1.512
       Rho0 radius:                                                        1.512
       Maximum GTO radius used for PAW projector construction:            24.566

     GAPW Soft Basis Set                                          def2-QZVP_soft

       Number of orbital shell sets:                                          18
       Number of orbital shells:                                              18
       Number of primitive Cartesian functions:                               17
       Number of Cartesian basis functions:                                   52
       Number of spherical basis functions:                                   46
       Norm type:                                                              2

       Normalised Cartesian orbitals:

                        Set   Shell   Orbital            Exponent    Coefficient

                          1       1    1s         

                          2       1    1s         

                          3       1    1s         

                          4       1    1s                2.483046       1.409771

                          5       1    1s                1.045251       0.736759

                          6       1    1s                0.438756       0.384218

                          7       1    1s                0.065596       0.092378

                          8       1    1s                0.030562       0.052095

                          9       1    1s                0.015509       0.031322

                         10       1    1px               3.496907       2.059200
                                                         1.511724       0.903688
                                                         0.644793       0.241500
                         10       1    1py               3.496907       2.059200
                                                         1.511724       0.903688
                                                         0.644793       0.241500
                         10       1    1pz               3.496907       2.059200
                                                         1.511724       0.903688
                                                         0.644793       0.241500

                         11       1    1px               0.261458       0.266497
                         11       1    1py               0.261458       0.266497
                         11       1    1pz               0.261458       0.266497

                         12       1    1px               0.117047       0.097587
                         12       1    1py               0.117047       0.097587
                         12       1    1pz               0.117047       0.097587

                         13       1    1px               0.040495       0.025893
                         13       1    1py               0.040495       0.025893
                         13       1    1pz               0.040495       0.025893

                         14       1    1px               0.015667       0.007901
                         14       1    1py               0.015667       0.007901
                         14       1    1pz               0.015667       0.007901

                         15       1    1dx2              2.900000      10.607327
                         15       1    1dxy              2.900000      18.372429
                         15       1    1dxz              2.900000      18.372429
                         15       1    1dy2              2.900000      10.607327
                         15       1    1dyz              2.900000      18.372429
                         15       1    1dz2              2.900000      10.607327

                         16       1    1dx2              0.230000       0.125728
                         16       1    1dxy              0.230000       0.217768
                         16       1    1dxz              0.230000       0.217768
                         16       1    1dy2              0.230000       0.125728
                         16       1    1dyz              0.230000       0.217768
                         16       1    1dz2              0.230000       0.125728

                         17       1    1dx2              0.075700       0.017982
                         17       1    1dxy              0.075700       0.031145
                         17       1    1dxz              0.075700       0.031145
                         17       1    1dy2              0.075700       0.017982
                         17       1    1dyz              0.075700       0.031145
                         17       1    1dz2              0.075700       0.017982

                         18       1    1fx3              0.135000       0.016263
                         18       1    1fx2y             0.135000       0.036366
                         18       1    1fx2z             0.135000       0.036366
                         18       1    1fxy2             0.135000       0.036366
                         18       1    1fxyz             0.135000       0.062987
                         18       1    1fxz2             0.135000       0.036366
                         18       1    1fy3              0.135000       0.016263
                         18       1    1fy2z             0.135000       0.036366
                         18       1    1fyz2             0.135000       0.036366
                         18       1    1fz3              0.135000       0.016263

     AE Potential information for                                            ALL

       Description:                                       All-electron potential
                                          Krack, Parrinello, PCCP 2, 2105 (2000)

       Gaussian exponent of the core charge distribution:               8.240971
       Electronic configuration (s p d ...):                           5   6   0

  2. Atomic kind: Cl                                    Number of atoms:       1

     Orbital Basis Set                                                 def2-QZVP

       Number of orbital shell sets:                                          22
       Number of orbital shells:                                              22
       Number of primitive Cartesian functions:                               41
       Number of Cartesian basis functions:                                   86
       Number of spherical basis functions:                                   70
       Norm type:                                                              2

       Normalised Cartesian orbitals:

                        Set   Shell   Orbital            Exponent    Coefficient

                          1       1    1s          1467459.009500       0.425773
                                                    219756.164330       0.796829
                                                     50010.770301       1.380227
                                                     14164.823918       2.257494
                                                      4620.746552       3.521527
                                                      1667.899163       5.224536
                                                       650.291993       7.246291
                                                       269.380374       8.968589
                                                       117.067521       9.076269
                                                        52.811767       6.264795

                          2       1    1s              461.427700       1.611036
                                                       142.126654       6.095348
                                                        54.437839      11.498871

                          3       1    1s               24.160770       7.766819

                          4       1    1s                9.708354       3.919849

                          5       1    1s                4.564070       2.225483

                          6       1    1s                2.119474       1.251933

                          7       1    1s                0.757224       0.578533

                          8       1    1s                0.337472       0.315565

                          9       1    1s                0.138608       0.161901

                         10       1    1px            2501.945789       6.358182
                                                       592.880593       9.140815
                                                       192.180892      12.125297
                                                        72.875710      14.188254
                                                        30.436358      13.984205
                                                        13.490179      10.535628
                                                         6.147807       5.502251
                                                         2.845094       1.581259
                         10       1    1py            2501.945789       6.358182
                                                       592.880593       9.140815
                                                       192.180892      12.125297
                                                        72.875710      14.188254
                                                        30.436358      13.984205
                                                        13.490179      10.535628
                                                         6.147807       5.502251
                                                         2.845094       1.581259
                         10       1    1pz            2501.945789       6.358182
                                                       592.880593       9.140815
                                                       192.180892      12.125297
                                                        72.875710      14.188254
                                                        30.436358      13.984205
                                                        13.490179      10.535628
                                                         6.147807       5.502251
                                                         2.845094       1.581259

                         11       1    1px             105.393979     -25.961556
                                                         6.736974      15.579070
                         11       1    1py             105.393979     -25.961556
                                                         6.736974      15.579070
                         11       1    1pz             105.393979     -25.961556
                                                         6.736974      15.579070

                         12       1    1px               1.242110       1.869132
                         12       1    1py               1.242110       1.869132
                         12       1    1pz               1.242110       1.869132

                         13       1    1px               0.556697       0.685431
                         13       1    1py               0.556697       0.685431
                         13       1    1pz               0.556697       0.685431

                         14       1    1px               0.233878       0.231834
                         14       1    1py               0.233878       0.231834
                         14       1    1pz               0.233878       0.231834

                         15       1    1px               0.093164       0.073367
                         15       1    1py               0.093164       0.073367
                         15       1    1pz               0.093164       0.073367

                         16       1    1dx2              5.191000      29.383177
                         16       1    1dxy              5.191000      50.893156
                         16       1    1dxz              5.191000      50.893156
                         16       1    1dy2              5.191000      29.383177
                         16       1    1dyz              5.191000      50.893156
                         16       1    1dz2              5.191000      29.383177

                         17       1    1dx2              1.276000       2.521437
                         17       1    1dxy              1.276000       4.367257
                         17       1    1dxz              1.276000       4.367257
                         17       1    1dy2              1.276000       2.521437
                         17       1    1dyz              1.276000       4.367257
                         17       1    1dz2              1.276000       2.521437

                         18       1    1dx2              0.583000       0.640220
                         18       1    1dxy              0.583000       1.108894
                         18       1    1dxz              0.583000       1.108894
                         18       1    1dy2              0.583000       0.640220
                         18       1    1dyz              0.583000       1.108894
                         18       1    1dz2              0.583000       0.640220

                         19       1    1dx2              0.243000       0.138427
                         19       1    1dxy              0.243000       0.239762
                         19       1    1dxz              0.243000       0.239762
                         19       1    1dy2              0.243000       0.138427
                         19       1    1dyz              0.243000       0.239762
                         19       1    1dz2              0.243000       0.138427

                         20       1    1fx3              0.423000       0.212432
                         20       1    1fx2y             0.423000       0.475013
                         20       1    1fx2z             0.423000       0.475013
                         20       1    1fxy2             0.423000       0.475013
                         20       1    1fxyz             0.423000       0.822746
                         20       1    1fxz2             0.423000       0.475013
                         20       1    1fy3              0.423000       0.212432
                         20       1    1fy2z             0.423000       0.475013
                         20       1    1fyz2             0.423000       0.475013
                         20       1    1fz3              0.423000       0.212432

                         21       1    1fx3              1.089000       1.783476
                         21       1    1fx2y             1.089000       3.987973
                         21       1    1fx2z             1.089000       3.987973
                         21       1    1fxy2             1.089000       3.987973
                         21       1    1fxyz             1.089000       6.907371
                         21       1    1fxz2             1.089000       3.987973
                         21       1    1fy3              1.089000       1.783476
                         21       1    1fy2z             1.089000       3.987973
                         21       1    1fyz2             1.089000       3.987973
                         21       1    1fz3              1.089000       1.783476

                         22       1    1gx4              0.827000       0.660048
                         22       1    1gx3y             0.827000       1.746323
                         22       1    1gx3z             0.827000       1.746323
                         22       1    1gx2y2            0.827000       2.254493
                         22       1    1gx2yz            0.827000       3.904897
                         22       1    1gx2z2            0.827000       2.254493
                         22       1    1gxy3             0.827000       1.746323
                         22       1    1gxy2z            0.827000       3.904897
                         22       1    1gxyz2            0.827000       3.904897
                         22       1    1gxz3             0.827000       1.746323
                         22       1    1gy4              0.827000       0.660048
                         22       1    1gy3z             0.827000       1.746323
                         22       1    1gy2z2            0.827000       2.254493
                         22       1    1gyz3             0.827000       1.746323
                         22       1    1gz4              0.827000       0.660048

     RI Auxiliary Basis Set                                                RI-5Z

       Number of orbital shell sets:                                          48
       Number of orbital shells:                                              48
       Number of primitive Cartesian functions:                               48
       Number of Cartesian basis functions:                                  335
       Number of spherical basis functions:                                  230
       Norm type:                                                              2

       Normalised Cartesian orbitals:

                        Set   Shell   Orbital            Exponent    Coefficient

                          1       1    1s             1275.190000     152.086710

                          2       1    1s              308.271000      52.433590

                          3       1    1s              107.711000      23.828963

                          4       1    1s               34.462700      10.137295

                          5       1    1s               14.452900       5.282948

                          6       1    1s                7.544300       3.244325

                          7       1    1s                3.685440       1.895733

                          8       1    1s                1.789660       1.102778

                          9       1    1s                1.072910       0.751333

                         10       1    1s                0.736635       0.566695

                         11       1    1s                0.332604       0.312145

                         12       1    1s                0.183773       0.200042

                         13       1    1px             405.243000    2591.698576
                         13       1    1py             405.243000    2591.698576
                         13       1    1pz             405.243000    2591.698576

                         14       1    1px             117.714000     552.681891
                         14       1    1py             117.714000     552.681891
                         14       1    1pz             117.714000     552.681891

                         15       1    1px              37.138800     130.684753
                         15       1    1py              37.138800     130.684753
                         15       1    1pz              37.138800     130.684753

                         16       1    1px              19.320600      57.738547
                         16       1    1py              19.320600      57.738547
                         16       1    1pz              19.320600      57.738547

                         17       1    1px               8.503760      20.699213
                         17       1    1py               8.503760      20.699213
                         17       1    1pz               8.503760      20.699213

                         18       1    1px               4.262460       8.730025
                         18       1    1py               4.262460       8.730025
                         18       1    1pz               4.262460       8.730025

                         19       1    1px               1.929040       3.240534
                         19       1    1py               1.929040       3.240534
                         19       1    1pz               1.929040       3.240534

                         20       1    1px               1.246920       1.878185
                         20       1    1py               1.246920       1.878185
                         20       1    1pz               1.246920       1.878185

                         21       1    1px               0.739900       0.978152
                         21       1    1py               0.739900       0.978152
                         21       1    1pz               0.739900       0.978152

                         22       1    1px               0.495422       0.592460
                         22       1    1py               0.495422       0.592460
                         22       1    1pz               0.495422       0.592460

                         23       1    1px               0.264132       0.269908
                         23       1    1py               0.264132       0.269908
                         23       1    1pz               0.264132       0.269908

                         24       1    1dx2            118.091000    6962.879136
                         24       1    1dxy            118.091000   12060.060431
                         24       1    1dxz            118.091000   12060.060431
                         24       1    1dy2            118.091000    6962.879136
                         24       1    1dyz            118.091000   12060.060431
                         24       1    1dz2            118.091000    6962.879136

                         25       1    1dx2             39.157400    1008.866472
                         25       1    1dxy             39.157400    1747.407988
                         25       1    1dxz             39.157400    1747.407988
                         25       1    1dy2             39.157400    1008.866472
                         25       1    1dyz             39.157400    1747.407988
                         25       1    1dz2             39.157400    1008.866472

                         26       1    1dx2             13.190700     150.272040
                         26       1    1dxy             13.190700     260.278808
                         26       1    1dxz             13.190700     260.278808
                         26       1    1dy2             13.190700     150.272040
                         26       1    1dyz             13.190700     260.278808
                         26       1    1dz2             13.190700     150.272040

                         27       1    1dx2              6.218710      40.307419
                         27       1    1dxy              6.218710      69.814498
                         27       1    1dxz              6.218710      69.814498
                         27       1    1dy2              6.218710      40.307419
                         27       1    1dyz              6.218710      69.814498
                         27       1    1dz2              6.218710      40.307419

                         28       1    1dx2              2.507050       8.221380
                         28       1    1dxy              2.507050      14.239847
                         28       1    1dxz              2.507050      14.239847
                         28       1    1dy2              2.507050       8.221380
                         28       1    1dyz              2.507050      14.239847
                         28       1    1dz2              2.507050       8.221380

                         29       1    1dx2              1.522240       3.433641
                         29       1    1dxy              1.522240       5.947241
                         29       1    1dxz              1.522240       5.947241
                         29       1    1dy2              1.522240       3.433641
                         29       1    1dyz              1.522240       5.947241
                         29       1    1dz2              1.522240       3.433641

                         30       1    1dx2              0.872617       1.296734
                         30       1    1dxy              0.872617       2.246009
                         30       1    1dxz              0.872617       2.246009
                         30       1    1dy2              0.872617       1.296734
                         30       1    1dyz              0.872617       2.246009
                         30       1    1dz2              0.872617       1.296734

                         31       1    1dx2              0.431274       0.377770
                         31       1    1dxy              0.431274       0.654317
                         31       1    1dxz              0.431274       0.654317
                         31       1    1dy2              0.431274       0.377770
                         31       1    1dyz              0.431274       0.654317
                         31       1    1dz2              0.431274       0.377770

                         32       1    1dx2              0.231014       0.126700
                         32       1    1dxy              0.231014       0.219451
                         32       1    1dxz              0.231014       0.219451
                         32       1    1dy2              0.231014       0.126700
                         32       1    1dyz              0.231014       0.219451
                         32       1    1dz2              0.231014       0.126700

                         33       1    1fx3             21.558400    1474.319577
                         33       1    1fx2y            21.558400    3296.678795
                         33       1    1fx2z            21.558400    3296.678795
                         33       1    1fxy2            21.558400    3296.678795
                         33       1    1fxyz            21.558400    5710.015169
                         33       1    1fxz2            21.558400    3296.678795
                         33       1    1fy3             21.558400    1474.319577
                         33       1    1fy2z            21.558400    3296.678795
                         33       1    1fyz2            21.558400    3296.678795
                         33       1    1fz3             21.558400    1474.319577

                         34       1    1fx3             10.107900     268.189368
                         34       1    1fx2y            10.107900     599.689658
                         34       1    1fx2z            10.107900     599.689658
                         34       1    1fxy2            10.107900     599.689658
                         34       1    1fxyz            10.107900    1038.692957
                         34       1    1fxz2            10.107900     599.689658
                         34       1    1fy3             10.107900     268.189368
                         34       1    1fy2z            10.107900     599.689658
                         34       1    1fyz2            10.107900     599.689658
                         34       1    1fz3             10.107900     268.189368

                         35       1    1fx3              4.921690      53.114308
                         35       1    1fx2y             4.921690     118.767202
                         35       1    1fx2z             4.921690     118.767202
                         35       1    1fxy2             4.921690     118.767202
                         35       1    1fxyz             4.921690     205.710829
                         35       1    1fxz2             4.921690     118.767202
                         35       1    1fy3              4.921690      53.114308
                         35       1    1fy2z             4.921690     118.767202
                         35       1    1fyz2             4.921690     118.767202
                         35       1    1fz3              4.921690      53.114308

                         36       1    1fx3              2.194960       8.633051
                         36       1    1fx2y             2.194960      19.304090
                         36       1    1fx2z             2.194960      19.304090
                         36       1    1fxy2             2.194960      19.304090
                         36       1    1fxyz             2.194960      33.435664
                         36       1    1fxz2             2.194960      19.304090
                         36       1    1fy3              2.194960       8.633051
                         36       1    1fy2z             2.194960      19.304090
                         36       1    1fyz2             2.194960      19.304090
                         36       1    1fz3              2.194960       8.633051

                         37       1    1fx3              1.541620       3.898553
                         37       1    1fx2y             1.541620       8.717430
                         37       1    1fx2z             1.541620       8.717430
                         37       1    1fxy2             1.541620       8.717430
                         37       1    1fxyz             1.541620      15.099031
                         37       1    1fxz2             1.541620       8.717430
                         37       1    1fy3              1.541620       3.898553
                         37       1    1fy2z             1.541620       8.717430
                         37       1    1fyz2             1.541620       8.717430
                         37       1    1fz3              1.541620       3.898553

                         38       1    1fx3              0.806943       0.908554
                         38       1    1fx2y             0.806943       2.031589
                         38       1    1fx2z             0.806943       2.031589
                         38       1    1fxy2             0.806943       2.031589
                         38       1    1fxyz             0.806943       3.518816
                         38       1    1fxz2             0.806943       2.031589
                         38       1    1fy3              0.806943       0.908554
                         38       1    1fy2z             0.806943       2.031589
                         38       1    1fyz2             0.806943       2.031589
                         38       1    1fz3              0.806943       0.908554

                         39       1    1fx3              0.436387       0.227859
                         39       1    1fx2y             0.436387       0.509508
                         39       1    1fx2z             0.436387       0.509508
[...]
    23 ( vir )      3.454     -0.506      0.000      2.109      1.000      5.058
    24 ( vir )      3.454     -0.506      0.000      2.109      1.000      5.058
   
  GW HOMO-LUMO gap (eV)                                                     7.83
  

  Total RI-RPA Time=                                                   26.220228
  RI-RPA energy  =                                             -0.90994177349875

  Total EXX Time=                                                      28.066605
  EXX energy  =                                               -41.57279412536074

 ENERGY| Total FORCE_EVAL ( QS ) energy (a.u.):             -622.350803045491716


 -------------------------------------------------------------------------------
 -                                                                             -
 -                                DBCSR STATISTICS                             -
 -                                                                             -
 -------------------------------------------------------------------------------
 COUNTER                                    TOTAL       BLAS       SMM       ACC
 flops    46 x    46 x    46               194672     100.0%      0.0%      0.0%
 flops    70 x    46 x    46               296240     100.0%      0.0%      0.0%
 flops    46 x    46 x    70               296240     100.0%      0.0%      0.0%
 flops    70 x    46 x    70               450800     100.0%      0.0%      0.0%
 flops    46 x    46 x    14               651728     100.0%      0.0%      0.0%
 flops    70 x    46 x    14               991760     100.0%      0.0%      0.0%
 flops   116 x   116 x    46              1237952     100.0%      0.0%      0.0%
 flops    70 x    70 x    14              1509200     100.0%      0.0%      0.0%
 flops   116 x   116 x    70              1883840     100.0%      0.0%      0.0%
 flops    46 x   506 x    46           1242007360     100.0%      0.0%      0.0%
 flops    46 x   552 x    46           1354917120     100.0%      0.0%      0.0%
 flops    70 x   506 x    46           1824838400     100.0%      0.0%      0.0%
 flops    46 x   506 x    70           1890011200     100.0%      0.0%      0.0%
 flops    46 x   770 x    46           1890011200     100.0%      0.0%      0.0%
 flops    70 x   552 x    46           1990732800     100.0%      0.0%      0.0%
 flops    46 x   552 x    70           2061830400     100.0%      0.0%      0.0%
 flops    46 x   840 x    46           2061830400     100.0%      0.0%      0.0%
 flops   230 x   230 x   230           2725408000     100.0%      0.0%      0.0%
 flops   460 x   116 x    46           2749107200     100.0%      0.0%      0.0%
 flops    70 x   506 x    70           2776928000     100.0%      0.0%      0.0%
 flops    70 x   770 x    46           2776928000     100.0%      0.0%      0.0%
 flops    46 x   770 x    70           2876104000     100.0%      0.0%      0.0%
 flops    70 x   552 x    70           3029376000     100.0%      0.0%      0.0%
 flops    70 x   840 x    46           3029376000     100.0%      0.0%      0.0%
 flops    46 x   840 x    70           3137568000     100.0%      0.0%      0.0%
 flops   460 x   116 x    70           4183424000     100.0%      0.0%      0.0%
 flops    70 x   770 x    70           4225760000     100.0%      0.0%      0.0%
 flops    70 x   840 x    70           4609920000     100.0%      0.0%      0.0%
 flops   230 x   230 x   336           7962931200     100.0%      0.0%      0.0%
 flops   230 x   230 x   360           8531712000     100.0%      0.0%      0.0%
 flops   460 x   116 x   230          13745536000     100.0%      0.0%      0.0%
 flops   230 x   230 x   322          30524569600     100.0%      0.0%      0.0%
 flops   230 x   230 x   345          32704896000     100.0%      0.0%      0.0%
 flops inhomo. stacks                           0       0.0%      0.0%      0.0%
 flops total                       143.913235E+09     100.0%      0.0%      0.0%
 flops max/rank                     26.518821E+09     100.0%      0.0%      0.0%
 matmuls inhomo. stacks                         0       0.0%      0.0%      0.0%
 matmuls total                              13191     100.0%      0.0%      0.0%
 number of processed stacks                 11427     100.0%      0.0%      0.0%
 average stack size                                     1.2       0.0       0.0
 marketing flops                   144.777708E+09
 -------------------------------------------------------------------------------
 # multiplications                            910
 max memory usage/rank             587.563008E+06
 # max total images/rank                        5
 # max 3D layers                                1
 # MPI messages exchanged                 1144440
 MPI messages size (bytes):
  total size                         7.245253E+09
  min size                           0.000000E+00
  max size                         846.400000E+03
  average size                       6.330828E+03
 MPI breakdown and total messages size (bytes):
             size <=      128             1123764                        0
       128 < size <=     8192                   0                        0
      8192 < size <=    32768                 138                  1843008
     32768 < size <=   131072                3402                183109248
    131072 < size <=  4194304               17136               7060300800
   4194304 < size <= 16777216                   0                        0
  16777216 < size                               0                        0
 -------------------------------------------------------------------------------

 *** WARNING in dbcsr_mm.F:278 :: Using a non-square number of MPI ranks ***
 *** might lead to poor performance. Used ranks: 40 Suggested: 36 81     ***

 -------------------------------------------------------------------------------
 -                                                                             -
 -                      DBCSR MESSAGE PASSING PERFORMANCE                      -
 -                                                                             -
 -------------------------------------------------------------------------------

 ROUTINE             CALLS      AVE VOLUME [Bytes]
 MP_Group               45
 MP_Bcast               34                     12.
 MP_Allreduce         5202                      8.
 MP_Alltoall          2896                  67077.
 MP_Wait             63456
 MP_ISend            60862                  15521.
 MP_IRecv            60862                     61.
 MP_Memory           96806
 -------------------------------------------------------------------------------


 MEMORY| Estimated peak process memory [MiB]                                 561

 -------------------------------------------------------------------------------
 ----                             MULTIGRID INFO                            ----
 -------------------------------------------------------------------------------
 count for grid        1:         837661          cutoff [a.u.]          200.00
 count for grid        2:          65891          cutoff [a.u.]           66.67
 count for grid        3:          46746          cutoff [a.u.]           22.22
 count for grid        4:          26828          cutoff [a.u.]            7.41
 total gridlevel count  :         977126

 -------------------------------------------------------------------------------
 -                                                                             -
 -                         MESSAGE PASSING PERFORMANCE                         -
 -                                                                             -
 -------------------------------------------------------------------------------

 ROUTINE             CALLS      AVE VOLUME [Bytes]
 MP_Group                5
 MP_Bcast              229                2495109.
 MP_Allreduce          579                 146260.
 MP_Sync                82
 MP_Alltoall           323                5903809.
 MP_ISendRecv         2028                  47378.
 MP_Wait              4538
 MP_comm_split          20
 MP_ISend             6584                 122897.
 MP_IRecv             5498                 297332.
 MP_Recv                 6                   1856.
 -------------------------------------------------------------------------------


 -------------------------------------------------------------------------------
 -                                                                             -
 -                           R E F E R E N C E S                               -
 -                                                                             -
 -------------------------------------------------------------------------------
 
 CP2K version 7.0 (Development Version), the CP2K developers group (2018).
 CP2K is freely available from https://www.cp2k.org/ .

 Schuett, Ole; Messmer, Peter; Hutter, Juerg; VandeVondele, Joost. 
 Electronic Structure Calculations on Graphics Processing Units, John Wiley & Sons, Ltd, 173-190 (2016). 
 GPU-Accelerated Sparse Matrix-Matrix Multiplication for Linear Scaling Density Functional Theory.
 https://dx.doi.org/10.1002/9781118670712.ch8


 Del Ben, M; Schuett, O; Wentz, T; Messmer, P; Hutter, J;
 VandeVondele, J. 
 COMPUTER PHYSICS COMMUNICATIONS, 187, 120-129 (2015). 
 Enabling simulation at the fifth rung of DFT: Large scale RPA
 calculations with excellent time to solution.
 https://dx.doi.org/10.1016/j.cpc.2014.10.021


 Borstnik, U; VandeVondele, J; Weber, V; Hutter, J. 
 PARALLEL COMPUTING, 40 (5-6), 47-58 (2014). 
 Sparse matrix multiplication: The distributed block-compressed sparse
 row library.
 https://dx.doi.org/10.1016/j.parco.2014.03.012


 Hutter, J; Iannuzzi, M; Schiffmann, F; VandeVondele, J. 
 WILEY INTERDISCIPLINARY REVIEWS-COMPUTATIONAL MOLECULAR SCIENCE, 4 (1), 15-25 (2014). 
 CP2K: atomistic simulations of condensed matter systems.
 https://dx.doi.org/10.1002/wcms.1159


 Del Ben, M; Hutter, J; VandeVondele, J. 
 JOURNAL OF CHEMICAL THEORY AND COMPUTATION, 9 (6), 2654-2671 (2013). 
 Electron Correlation in the Condensed Phase from a Resolution of
 Identity Approach Based on the Gaussian and Plane Waves Scheme.
 https://dx.doi.org/10.1021/ct4002202


 Del Ben, M; Hutter, J; VandeVondele, J. 
 JOURNAL OF CHEMICAL THEORY AND COMPUTATION, 8 (11), 4177-4188 (2012). 
 Second-Order Moller-Plesset Perturbation Theory in the Condensed Phase:
 An Efficient and Massively Parallel Gaussian and Plane Waves Approach.
 https://dx.doi.org/10.1021/ct300531w


 Guidon, M; Hutter, J; VandeVondele, J. 
 JOURNAL OF CHEMICAL THEORY AND COMPUTATION, 5 (11), 3010-3021 (2009). 
 Robust Periodic Hartree-Fock Exchange for Large-Scale Simulations Using
 Gaussian Basis Sets.
 https://dx.doi.org/10.1021/ct900494g


 Guidon, M; Schiffmann, F; Hutter, J; VandeVondele, J. 
 JOURNAL OF CHEMICAL PHYSICS, 128 (21), 214104 (2008). 
 Ab initio molecular dynamics using hybrid density functionals.
 https://dx.doi.org/10.1063/1.2931945


 Frigo, M; Johnson, SG. 
 PROCEEDINGS OF THE IEEE, 93 (2), 216-231 (2005). 
 The design and implementation of FFTW3.
 https://dx.doi.org/10.1109/JPROC.2004.840301


 Lippert, G; Hutter, J; Parrinello, M. 
 THEORETICAL CHEMISTRY ACCOUNTS, 103 (2), 124-140 (1999). 
 The Gaussian and augmented-plane-wave density functional method for ab
 initio molecular dynamics simulations.
 https://dx.doi.org/10.1007/s002140050523


 Krack, M; Parrinello, M. 
 PHYSICAL CHEMISTRY CHEMICAL PHYSICS, 2 (10), 2105-2112 (2000). 
 All-electron ab-initio molecular dynamics.
 https://dx.doi.org/10.1039/b001167n


 Martyna, GJ; Tuckerman, ME. 
 JOURNAL OF CHEMICAL PHYSICS, 110 (6), 2810-2821 (1999). 
 A reciprocal space based method for treating long range interactions in
 ab initio and force-field-based calculations in clusters.
 https://dx.doi.org/10.1063/1.477923


 Perdew, JP; Burke, K; Ernzerhof, M. 
 PHYSICAL REVIEW LETTERS, 77 (18), 3865-3868 (1996). 
 Generalized gradient approximation made simple.
 https://dx.doi.org/10.1103/PhysRevLett.77.3865


 -------------------------------------------------------------------------------
 -                                                                             -
 -                                T I M I N G                                  -
 -                                                                             -
 -------------------------------------------------------------------------------
 SUBROUTINE                       CALLS  ASD         SELF TIME        TOTAL TIME
                                MAXIMUM       AVERAGE  MAXIMUM  AVERAGE  MAXIMUM
 CP2K                                 1  1.0    0.016    0.021   83.508   83.509
 qs_energies                          1  2.0    0.000    0.000   82.301   82.302
 mp2_main                             1  3.0    0.000    0.001   54.303   54.305
 compute_vec_Sigma_x_minus_vxc_       1  4.0    0.000    0.000   28.067   28.067
 scf_env_do_scf                       1  3.0    0.000    0.000   27.173   27.173
 scf_env_do_scf_inner_loop           11  4.0    0.001    0.001   27.173   27.173
 integrate_four_center                1  5.0    0.007    0.012   27.022   27.027
 mp2_gpw_main                         1  4.0    0.000    0.001   26.220   26.220
 qs_ks_build_kohn_sham_matrix        12  6.8    0.003    0.005   24.035   24.055
 qs_ks_update_qs_env                 11  5.0    0.000    0.000   23.004   23.023
 rebuild_ks_matrix                   11  6.0    0.000    0.000   23.003   23.022
 rpa_ri_compute_en                    1  5.0    0.000    0.001   21.159   21.160
 rpa_num_int                          1  6.0    0.001    0.002   21.157   21.157
 calc_screening_functions             1  6.0    5.875    6.627   11.515   12.944
 pw_transfer                        249  9.5    0.025    0.028   10.482   10.956
 dbcsr_multiply_generic             910  9.9    0.051    0.062    8.622   10.801
 powell_optimize                2186576  7.0    9.306   10.751    9.306   10.751
 fft_wrap_pw1pw2                    211 10.6    0.003    0.004   10.303   10.751
 fft_wrap_pw1pw2_200                138 11.7    0.650    0.901    9.612   10.095
 mp_sum_d                          1165  6.7    6.974    9.596    6.974    9.596
 GW_postprocessing                    1  7.0    0.000    0.000    9.464    9.464
 compute_self_energy_im_time_gw       1  8.0    0.003    0.003    9.463    9.464
 multiply_cannon                    910 10.9    0.158    0.179    5.959    9.343
 fft3d_ps                           211 12.6    3.235    3.903    7.797    9.068
 calc_pair_dist_radii                 1  6.0    3.225    3.642    6.891    7.936
 qs_vxc_create                       12  7.8    0.001    0.003    7.614    7.616
 xc_vxc_pw_create                    11  9.0    0.066    0.079    7.613    7.616
 mp_waitall_1                     65938 13.3    3.780    7.582    3.780    7.582
 multiply_cannon_metrocomm3       17383 11.9    0.024    0.029    2.832    7.172
 mp_sync                             82  8.7    6.181    7.027    6.181    7.027
 rs_pw_transfer                     122  9.4    0.003    0.004    6.442    6.960
 integrate_four_center_main           1  6.0    0.000    0.000    0.567    6.439
 integrate_four_center_bin          128  7.0    0.567    6.439    0.567    6.439
 mp_alltoall_z22v                   211 14.6    3.630    6.228    3.630    6.228
 mp_sum_l                          4512 10.9    3.479    6.147    3.479    6.147
 multiply_cannon_multrec          17383 11.9    0.795    5.690    1.368    5.712
 multiply_cannon_metrocomm1       17383 11.9    0.011    0.014    0.587    5.582
 compute_self_energy_im_time_gw     280  9.0    0.001    0.002    3.887    5.290
 mp2_ri_gpw_compute_in                1  5.0    0.000    0.000    4.181    5.052
 mp_waitany                        1972 11.3    3.399    5.050    3.399    5.050
 prepare_gapw_den                    12  7.8    0.001    0.001    4.880    4.949
 compute_3c_overlap_int               1  6.0    1.320    1.682    3.830    4.701
 qs_rho_update_rho                   12  5.0    0.000    0.003    4.408    4.409
 calculate_rho_elec                  12  6.0    0.072    1.073    4.339    4.340
 calculate_vxc_atom                  12  7.8    0.014    0.356    4.327    4.329
 xc_rho_set_and_dset_create          11 10.0    0.043    0.051    3.917    4.246
 density_rs2pw                       12  7.0    0.001    0.001    3.877    4.091
 dbcsr_trace_a_b_d                  584  9.9    0.004    0.071    2.038    4.084
 compute_self_energy_im_time_gw     280  9.0    0.001    0.001    2.001    4.050
 gaVxcgb_GC                          22  9.0    0.097    3.899    0.097    3.899
 sum_up_and_integrate                12  7.8    0.032    0.052    3.497    3.761
 integrate_four_center_load           1  6.0    0.000    0.000    2.156    3.758
 hfx_load_balance                     1  7.0    0.000    0.001    2.156    3.758
 yz_to_x                            106 13.2    0.357    0.473    2.382    3.753
 integrate_v_rspace                  12  8.8    0.040    0.449    3.465    3.739
 rpa_num_int_im_t_alloc_mat_gw        1  7.0    0.000    0.000    0.116    3.664
 allocate_matrices_gw_im_time         1  8.0    0.000    0.000    0.116    3.664
 get_mat_3c_overl_int_gw              1  9.0    0.001    0.001    0.115    3.663
 fill_mat_3c_overl_int_gw             1 10.0    0.000    0.000    0.104    3.652
 rpa_num_int_im_t_alloc_mat_24        1  7.0    0.000    0.000    3.553    3.649
 hfx_load_balance_range               1  8.0    0.002    0.060    2.046    3.647
 cp_fm_copy_general                   2  8.0    0.000    0.000    3.552    3.647
 cp_fm_start_copy_general             2  9.0    0.001    0.002    3.551    3.647
 mp_allgather_i                       4 10.0    3.551    3.645    3.551    3.645
 GW3c_fill_mat                        1 11.0    0.042    1.662    0.091    3.637
 mp_sum_dm                           78  7.7    2.428    3.434    2.428    3.434
 potential_pw2rs                     12  9.8    0.002    0.003    3.270    3.284
 x_to_yz                            105 14.1    0.567    0.759    2.172    3.068
 compute_mat_P_omega                  1  7.0    0.000    0.001    2.992    2.993
 compute_3c_overlap_int_put_dbc   19056  7.0    2.405    2.919    2.405    2.919
 mp_sum_dv                           60  8.3    1.927    2.848    1.927    2.848
 rs_pw_transfer_PW2RS_200            25 10.7    0.931    1.500    2.262    2.747
 rs_pw_transfer_RS2PW_200            25  9.8    0.855    1.296    2.408    2.679
 calculate_rho_atom                  24  8.8    0.711    2.337    0.711    2.337
 put_rho0_on_grid                    12  8.8    0.012    0.019    2.082    2.151
 mp_comm_split_direct                 8  6.6    1.060    2.134    1.060    2.134
 compute_self_energy_im_time_gw     280  9.0    0.001    0.002    1.472    2.077
 compute_self_energy_im_time_gw     280  9.0    0.001    0.002    2.031    2.049
 integrate_vhg0_rspace               12  7.8    0.128    0.212    1.794    2.024
 compute_mat_P_omega_calc_P          14  8.0    0.000    0.000    1.580    1.979
 create_dbcsr_matrices_im_time        1  5.0    0.002    0.002    0.876    1.871
 make_m2s                          1820 10.9    0.040    0.044    1.158    1.680
 -------------------------------------------------------------------------------

 The number of warnings for this run is : 3
 
 -------------------------------------------------------------------------------
  **** **** ******  **  PROGRAM ENDED AT                 2019-05-31 17:53:34.476
 ***** ** ***  *** **   PROGRAM RAN ON                                    tcopt4
 **    ****   ******    PROGRAM RAN BY                                   wilhelm
 ***** **    ** ** **   PROGRAM PROCESS ID                                 87235
  **** **  *******  **  PROGRAM STOPPED IN /data/wilhelm/2_job_test/11_GW100/3_c
                                           alcs/62_NaCl
