 DBCSR| CPU Multiplication driver                                           BLAS
 DBCSR| Multrec recursion limit                                              512
 DBCSR| Multiplication stack size                                           1000
 DBCSR| Maximum elements for images                                    UNLIMITED
 DBCSR| Multiplicative factor virtual images                                   1
 DBCSR| Use multiplication densification                                       T
 DBCSR| Multiplication size stacks                                             3
 DBCSR| Number of 3D layers                                               SINGLE
 DBCSR| Use MPI memory allocation                                              T
 DBCSR| Use RMA algorithm                                                      F
 DBCSR| Use Communication thread                                               T
 DBCSR| Communication thread load                                             87


  **** **** ******  **  PROGRAM STARTED AT               2019-06-07 21:26:02.929
 ***** ** ***  *** **   PROGRAM STARTED ON                                tcopt4
 **    ****   ******    PROGRAM STARTED BY                               wilhelm
 ***** **    ** ** **   PROGRAM PROCESS ID                                 98095
  **** **  *******  **  PROGRAM STARTED IN /data/wilhelm/2_job_test/11_GW100/3_c
                                           alcs/85_MgO

 CP2K| version string:                    CP2K version 7.0 (Development Version)
 CP2K| source code revision number:                                  git:bc2813a
 CP2K| cp2kflags: libint fftw3 libxc pexsi elpa=201705 parallel mpi3 scalapack q
 CP2K|            uip libderiv_max_am1=5 libint_max_am=6
 CP2K| is freely available from                            https://www.cp2k.org/
 CP2K| Program compiled at                         Sun Jun  2 14:38:23 CEST 2019
 CP2K| Program compiled on                                                tcopt4
 CP2K| Program compiled for                            local_valgrind_March_2019
 CP2K| Data directory path              /data/wilhelm/1_git_repository/cp2k/data
 CP2K| Input file name                                                    GW.inp

 GLOBAL| Force Environment number                                              1
 GLOBAL| Basis set file name                              BASIS_def2_QZVP_RI_ALL
 GLOBAL| Potential file name                                           POTENTIAL
 GLOBAL| MM Potential file name                                     MM_POTENTIAL
 GLOBAL| Coordinate file name                                         85_MgO.xyz
 GLOBAL| Method name                                                        CP2K
 GLOBAL| Project name                                                   ALL_ELEC
 GLOBAL| Preferred FFT library                                             FFTW3
 GLOBAL| Preferred diagonalization lib.                                       SL
 GLOBAL| Run type                                                         ENERGY
 GLOBAL| All-to-all communication in single precision                          F
 GLOBAL| FFTs using library dependent lengths                                  F
 GLOBAL| Global print level                                               MEDIUM
 GLOBAL| MPI I/O enabled                                                       T
 GLOBAL| Total number of message passing processes                            24
 GLOBAL| Number of threads for this process                                    1
 GLOBAL| This output is from process                                           0
 GLOBAL| CPU model name :  Intel(R) Xeon(R) CPU E5-2697 v3 @ 2.60GHz

 MEMORY| system memory details [Kb]
 MEMORY|                        rank 0           min           max       average
 MEMORY| MemTotal            396954008     396954008     396954008     396954008
 MEMORY| MemFree             341303892     341303892     341303892     341303892
 MEMORY| Buffers                344068        344068        344068        344068
 MEMORY| Cached               41442572      41442572      41442572      41442572
 MEMORY| Slab                  1449064       1449064       1449064       1449064
 MEMORY| SReclaimable          1304948       1304948       1304948       1304948
 MEMORY| MemLikelyFree       384395480     384395480     384395480     384395480


 *** Fundamental physical constants (SI units) ***

 *** Literature: B. J. Mohr and B. N. Taylor,
 ***             CODATA recommended values of the fundamental physical
 ***             constants: 2006, Web Version 5.1
 ***             http://physics.nist.gov/constants

 Speed of light in vacuum [m/s]                             2.99792458000000E+08
 Magnetic constant or permeability of vacuum [N/A**2]       1.25663706143592E-06
 Electric constant or permittivity of vacuum [F/m]          8.85418781762039E-12
 Planck constant (h) [J*s]                                  6.62606896000000E-34
 Planck constant (h-bar) [J*s]                              1.05457162825177E-34
 Elementary charge [C]                                      1.60217648700000E-19
 Electron mass [kg]                                         9.10938215000000E-31
 Electron g factor [ ]                                     -2.00231930436220E+00
 Proton mass [kg]                                           1.67262163700000E-27
 Fine-structure constant                                    7.29735253760000E-03
 Rydberg constant [1/m]                                     1.09737315685270E+07
 Avogadro constant [1/mol]                                  6.02214179000000E+23
 Boltzmann constant [J/K]                                   1.38065040000000E-23
 Atomic mass unit [kg]                                      1.66053878200000E-27
 Bohr radius [m]                                            5.29177208590000E-11

 *** Conversion factors ***

 [u] -> [a.u.]                                              1.82288848426455E+03
 [Angstrom] -> [Bohr] = [a.u.]                              1.88972613288564E+00
 [a.u.] = [Bohr] -> [Angstrom]                              5.29177208590000E-01
 [a.u.] -> [s]                                              2.41888432650478E-17
 [a.u.] -> [fs]                                             2.41888432650478E-02
 [a.u.] -> [J]                                              4.35974393937059E-18
 [a.u.] -> [N]                                              8.23872205491840E-08
 [a.u.] -> [K]                                              3.15774647902944E+05
 [a.u.] -> [kJ/mol]                                         2.62549961709828E+03
 [a.u.] -> [kcal/mol]                                       6.27509468713739E+02
 [a.u.] -> [Pa]                                             2.94210107994716E+13
 [a.u.] -> [bar]                                            2.94210107994716E+08
 [a.u.] -> [atm]                                            2.90362800883016E+08
 [a.u.] -> [eV]                                             2.72113838565563E+01
 [a.u.] -> [Hz]                                             6.57968392072181E+15
 [a.u.] -> [1/cm] (wave numbers)                            2.19474631370540E+05
 [a.u./Bohr**2] -> [1/cm]                                   5.14048714338585E+03
 

 CELL_TOP| Volume [angstrom^3]:                                         4096.000
 CELL_TOP| Vector a [angstrom    16.000     0.000     0.000    |a| =      16.000
 CELL_TOP| Vector b [angstrom     0.000    16.000     0.000    |b| =      16.000
 CELL_TOP| Vector c [angstrom     0.000     0.000    16.000    |c| =      16.000
 CELL_TOP| Angle (b,c), alpha [degree]:                                   90.000
 CELL_TOP| Angle (a,c), beta  [degree]:                                   90.000
 CELL_TOP| Angle (a,b), gamma [degree]:                                   90.000
 CELL_TOP| Numerically orthorhombic:                                         YES

 GENERATE|  Preliminary Number of Bonds generated:                             0
 GENERATE|  Achieved consistency in connectivity generation.

 CELL| Volume [angstrom^3]:                                             4096.000
 CELL| Vector a [angstrom]:      16.000     0.000     0.000    |a| =      16.000
 CELL| Vector b [angstrom]:       0.000    16.000     0.000    |b| =      16.000
 CELL| Vector c [angstrom]:       0.000     0.000    16.000    |c| =      16.000
 CELL| Angle (b,c), alpha [degree]:                                       90.000
 CELL| Angle (a,c), beta  [degree]:                                       90.000
 CELL| Angle (a,b), gamma [degree]:                                       90.000
 CELL| Numerically orthorhombic:                                             YES

 CELL_REF| Volume [angstrom^3]:                                         4096.000
 CELL_REF| Vector a [angstrom    16.000     0.000     0.000    |a| =      16.000
 CELL_REF| Vector b [angstrom     0.000    16.000     0.000    |b| =      16.000
 CELL_REF| Vector c [angstrom     0.000     0.000    16.000    |c| =      16.000
 CELL_REF| Angle (b,c), alpha [degree]:                                   90.000
 CELL_REF| Angle (a,c), beta  [degree]:                                   90.000
 CELL_REF| Angle (a,b), gamma [degree]:                                   90.000
 CELL_REF| Numerically orthorhombic:                                         YES

 *******************************************************************************
 *******************************************************************************
 **                                                                           **
 **     #####                         ##              ##                      **
 **    ##   ##            ##          ##              ##                      **
 **   ##     ##                       ##            ######                    **
 **   ##     ##  ##   ##  ##   #####  ##  ##   ####   ##    #####    #####    **
 **   ##     ##  ##   ##  ##  ##      ## ##   ##      ##   ##   ##  ##   ##   **
 **   ##  ## ##  ##   ##  ##  ##      ####     ###    ##   ######   ######    **
 **    ##  ###   ##   ##  ##  ##      ## ##      ##   ##   ##       ##        **
 **     #######   #####   ##   #####  ##  ##  ####    ##    #####   ##        **
 **           ##                                                    ##        **
 **                                                                           **
 **                                                ... make the atoms dance   **
 **                                                                           **
 **            Copyright (C) by CP2K developers group (2000 - 2019)           **
 **                                                                           **
 *******************************************************************************

 DFT| Spin restricted Kohn-Sham (RKS) calculation                            RKS
 DFT| Multiplicity                                                             1
 DFT| Number of spin states                                                    1
 DFT| Charge                                                                   0
 DFT| Self-interaction correction (SIC)                                       NO
 DFT| Cutoffs: density                                              1.000000E-10
 DFT|          gradient                                             1.000000E-10
 DFT|          tau                                                  1.000000E-10
 DFT|          cutoff_smoothing_range                               0.000000E+00
 DFT| XC density smoothing                                                  NONE
 DFT| XC derivatives                                                          PW
 FUNCTIONAL| ROUTINE=NEW
 FUNCTIONAL| PBE:
 FUNCTIONAL| J.P.Perdew, K.Burke, M.Ernzerhof, Phys. Rev. Letter, vol. 77, n 18,
 FUNCTIONAL|  pp. 3865-3868, (1996){spin unpolarized}                           

 QS| Method:                                                                GAPW
 QS| Density plane wave grid type                        NON-SPHERICAL FULLSPACE
 QS| Number of grid levels:                                                    4
 QS| Density cutoff [a.u.]:                                                200.0
 QS| Multi grid cutoff [a.u.]: 1) grid level                               200.0
 QS|                           2) grid level                                66.7
 QS|                           3) grid level                                22.2
 QS|                           4) grid level                                 7.4
 QS| Grid level progression factor:                                          3.0
 QS| Relative density cutoff [a.u.]:                                        25.0
 QS| Consistent realspace mapping and integration 
 QS| Interaction thresholds: eps_pgf_orb:                                1.0E-05
 QS|                         eps_filter_matrix:                          0.0E+00
 QS|                         eps_core_charge:                            1.0E-12
 QS|                         eps_rho_gspace:                             1.0E-10
 QS|                         eps_rho_rspace:                             1.0E-10
 QS|                         eps_gvg_rspace:                             1.0E-05
 QS|                         eps_ppl:                                    1.0E-02
 QS|                         eps_ppnl:                                   1.0E-07
 QS| GAPW|                   eps_fit:                                    1.0E-04
 QS| GAPW|                   eps_iso:                                    1.0E-12
 QS| GAPW|                   eps_svd:                                    1.0E-08
 QS| GAPW|                   eps_cpc:                                    1.0E-10
 QS| GAPW|   atom-r-grid: quadrature:                 GC_LOG                        
 QS| GAPW|      atom-s-grid:  max l :                                          8
 QS| GAPW|      max_l_rho0 :                                                   2


 ATOMIC KIND INFORMATION

  1. Atomic kind: Mg                                    Number of atoms:       1

     Orbital Basis Set                                                 def2-QZVP

       Number of orbital shell sets:                                          19
       Number of orbital shells:                                              19
       Number of primitive Cartesian functions:                               37
       Number of Cartesian basis functions:                                   58
       Number of spherical basis functions:                                   51
       Norm type:                                                              2

       Normalised Cartesian orbitals:

                        Set   Shell   Orbital            Exponent    Coefficient

                          1       1    1s           605967.787530       0.257226
                                                     90569.094692       0.482047
                                                     20574.252844       0.835599
                                                      5818.628486       1.366366
                                                      1895.629608       2.127534
                                                       683.459410       3.135466
                                                       266.182198       4.276339
                                                       110.112200       5.096899
                                                        47.777041       4.796221
                                                        21.542166       2.874698

                          2       1    1s              174.121364       0.987018
                                                        53.484972       3.401293
                                                        20.500213       5.290746

                          3       1    1s                9.805683       3.949285

                          4       1    1s                3.540299       1.839459

                          5       1    1s                1.545085       0.987698

                          6       1    1s                0.665402       0.525077

                          7       1    1s                0.143554       0.166216

                          8       1    1s                0.066625       0.093462

                          9       1    1s                0.029773       0.051083

                         10       1    1px             893.204608       2.515826
                                                       211.782583       3.549722
                                                        68.443201       4.502320
                                                        25.727265       4.916948
                                                        10.606634       4.403779
                                                         4.593413       2.897035
                                                         2.010047       1.312849
                                                         0.873848       0.343401
                         10       1    1py             893.204608       2.515826
                                                       211.782583       3.549722
                                                        68.443201       4.502320
                                                        25.727265       4.916948
                                                        10.606634       4.403779
                                                         4.593413       2.897035
                                                         2.010047       1.312849
                                                         0.873848       0.343401
                         10       1    1pz             893.204608       2.515826
                                                       211.782583       3.549722
                                                        68.443201       4.502320
                                                        25.727265       4.916948
                                                        10.606634       4.403779
                                                         4.593413       2.897035
                                                         2.010047       1.312849
                                                         0.873848       0.343401

                         11       1    1px               0.356151       0.392177
                         11       1    1py               0.356151       0.392177
                         11       1    1pz               0.356151       0.392177

                         12       1    1px               0.189960       0.178758
                         12       1    1py               0.189960       0.178758
                         12       1    1pz               0.189960       0.178758

                         13       1    1px               0.074580       0.055554
                         13       1    1py               0.074580       0.055554
                         13       1    1pz               0.074580       0.055554

                         14       1    1px               0.029222       0.017221
                         14       1    1py               0.029222       0.017221
                         14       1    1pz               0.029222       0.017221

                         15       1    1dx2              3.810000      17.101262
                         15       1    1dxy              3.810000      29.620255
                         15       1    1dxz              3.810000      29.620255
                         15       1    1dy2              3.810000      17.101262
                         15       1    1dyz              3.810000      29.620255
                         15       1    1dz2              3.810000      17.101262

                         16       1    1dx2              0.650000       0.774476
                         16       1    1dxy              0.650000       1.341431
                         16       1    1dxz              0.650000       1.341431
                         16       1    1dy2              0.650000       0.774476
                         16       1    1dyz              0.650000       1.341431
                         16       1    1dz2              0.650000       0.774476

                         17       1    1dx2              0.200000       0.098449
                         17       1    1dxy              0.200000       0.170519
                         17       1    1dxz              0.200000       0.170519
                         17       1    1dy2              0.200000       0.098449
                         17       1    1dyz              0.200000       0.170519
                         17       1    1dz2              0.200000       0.098449

                         18       1    1dx2              0.052000       0.009320
                         18       1    1dxy              0.052000       0.016143
                         18       1    1dxz              0.052000       0.016143
                         18       1    1dy2              0.052000       0.009320
                         18       1    1dyz              0.052000       0.016143
                         18       1    1dz2              0.052000       0.009320

                         19       1    1fx3              0.160000       0.023836
                         19       1    1fx2y             0.160000       0.053298
                         19       1    1fx2z             0.160000       0.053298
                         19       1    1fxy2             0.160000       0.053298
                         19       1    1fxyz             0.160000       0.092315
                         19       1    1fxz2             0.160000       0.053298
                         19       1    1fy3              0.160000       0.023836
                         19       1    1fy2z             0.160000       0.053298
                         19       1    1fyz2             0.160000       0.053298
                         19       1    1fz3              0.160000       0.023836

     RI Auxiliary Basis Set                                                RI-5Z

       Number of orbital shell sets:                                          48
       Number of orbital shells:                                              48
       Number of primitive Cartesian functions:                               48
       Number of Cartesian basis functions:                                  335
       Number of spherical basis functions:                                  230
       Norm type:                                                              2

       Normalised Cartesian orbitals:

                        Set   Shell   Orbital            Exponent    Coefficient

                          1       1    1s              540.416000      79.883345

                          2       1    1s              102.127000      22.896311

                          3       1    1s               43.111400      11.990966

                          4       1    1s               13.476700       5.013001

                          5       1    1s                7.375560       3.189748

                          6       1    1s                2.606800       1.462146

                          7       1    1s                1.298970       0.867180

                          8       1    1s                0.584075       0.476169

                          9       1    1s                0.330108       0.310386

                         10       1    1s                0.180505       0.197368

                         11       1    1s                0.119148       0.144536

                         12       1    1s                0.069145       0.096101

                         13       1    1px             123.479000     586.720777
                         13       1    1py             123.479000     586.720777
                         13       1    1pz             123.479000     586.720777

                         14       1    1px              33.483200     114.808432
                         14       1    1py              33.483200     114.808432
                         14       1    1pz              33.483200     114.808432

                         15       1    1px              12.336600      32.955996
                         15       1    1py              12.336600      32.955996
                         15       1    1pz              12.336600      32.955996

                         16       1    1px               5.613380      12.316027
                         16       1    1py               5.613380      12.316027
                         16       1    1pz               5.613380      12.316027

                         17       1    1px               2.423950       4.311165
                         17       1    1py               2.423950       4.311165
                         17       1    1pz               2.423950       4.311165

                         18       1    1px               1.157890       1.712081
                         18       1    1py               1.157890       1.712081
                         18       1    1pz               1.157890       1.712081

                         19       1    1px               0.531815       0.647352
                         19       1    1py               0.531815       0.647352
                         19       1    1pz               0.531815       0.647352

                         20       1    1px               0.293408       0.307808
                         20       1    1py               0.293408       0.307808
                         20       1    1pz               0.293408       0.307808

                         21       1    1px               0.194135       0.183683
                         21       1    1py               0.194135       0.183683
                         21       1    1pz               0.194135       0.183683

                         22       1    1px               0.130156       0.111435
                         22       1    1py               0.130156       0.111435
                         22       1    1pz               0.130156       0.111435

                         23       1    1px               0.084593       0.065029
                         23       1    1py               0.084593       0.065029
                         23       1    1pz               0.084593       0.065029

                         24       1    1dx2             28.354200     573.442535
                         24       1    1dxy             28.354200     993.231605
                         24       1    1dxz             28.354200     993.231605
                         24       1    1dy2             28.354200     573.442535
                         24       1    1dyz             28.354200     993.231605
                         24       1    1dz2             28.354200     573.442535

                         25       1    1dx2              8.248800      66.083542
                         25       1    1dxy              8.248800     114.460052
                         25       1    1dxz              8.248800     114.460052
                         25       1    1dy2              8.248800      66.083542
                         25       1    1dyz              8.248800     114.460052
                         25       1    1dz2              8.248800      66.083542

                         26       1    1dx2              2.956150      10.969347
                         26       1    1dxy              2.956150      18.999466
                         26       1    1dxz              2.956150      18.999466
                         26       1    1dy2              2.956150      10.969347
                         26       1    1dyz              2.956150      18.999466
                         26       1    1dz2              2.956150      10.969347

                         27       1    1dx2              1.287300       2.560643
                         27       1    1dxy              1.287300       4.435164
                         27       1    1dxz              1.287300       4.435164
                         27       1    1dy2              1.287300       2.560643
                         27       1    1dyz              1.287300       4.435164
                         27       1    1dz2              1.287300       2.560643

                         28       1    1dx2              0.583460       0.641105
                         28       1    1dxy              0.583460       1.110426
                         28       1    1dxz              0.583460       1.110426
                         28       1    1dy2              0.583460       0.641105
                         28       1    1dyz              0.583460       1.110426
                         28       1    1dz2              0.583460       0.641105

                         29       1    1dx2              0.344419       0.254866
                         29       1    1dxy              0.344419       0.441441
                         29       1    1dxz              0.344419       0.441441
                         29       1    1dy2              0.344419       0.254866
                         29       1    1dyz              0.344419       0.441441
                         29       1    1dz2              0.344419       0.254866

                         30       1    1dx2              0.222430       0.118576
                         30       1    1dxy              0.222430       0.205380
                         30       1    1dxz              0.222430       0.205380
                         30       1    1dy2              0.222430       0.118576
                         30       1    1dyz              0.222430       0.205380
                         30       1    1dz2              0.222430       0.118576

                         31       1    1dx2              0.151929       0.060853
                         31       1    1dxy              0.151929       0.105400
                         31       1    1dxz              0.151929       0.105400
                         31       1    1dy2              0.151929       0.060853
                         31       1    1dyz              0.151929       0.105400
                         31       1    1dz2              0.151929       0.060853

                         32       1    1dx2              0.091250       0.024935
                         32       1    1dxy              0.091250       0.043189
                         32       1    1dxz              0.091250       0.043189
                         32       1    1dy2              0.091250       0.024935
                         32       1    1dyz              0.091250       0.043189
                         32       1    1dz2              0.091250       0.024935

                         33       1    1fx3              6.950670     115.482043
                         33       1    1fx2y             6.950670     258.225697
                         33       1    1fx2z             6.950670     258.225697
                         33       1    1fxy2             6.950670     258.225697
                         33       1    1fxyz             6.950670     447.260028
                         33       1    1fxz2             6.950670     258.225697
                         33       1    1fy3              6.950670     115.482043
                         33       1    1fy2z             6.950670     258.225697
                         33       1    1fyz2             6.950670     258.225697
                         33       1    1fz3              6.950670     115.482043

                         34       1    1fx3              2.762140      14.479623
                         34       1    1fx2y             2.762140      32.377421
                         34       1    1fx2z             2.762140      32.377421
                         34       1    1fxy2             2.762140      32.377421
                         34       1    1fxyz             2.762140      56.079338
                         34       1    1fxz2             2.762140      32.377421
                         34       1    1fy3              2.762140      14.479623
                         34       1    1fy2z             2.762140      32.377421
                         34       1    1fyz2             2.762140      32.377421
                         34       1    1fz3              2.762140      14.479623

                         35       1    1fx3              1.250720       2.435368
                         35       1    1fx2y             1.250720       5.445649
                         35       1    1fx2z             1.250720       5.445649
                         35       1    1fxy2             1.250720       5.445649
                         35       1    1fxyz             1.250720       9.432141
                         35       1    1fxz2             1.250720       5.445649
                         35       1    1fy3              1.250720       2.435368
                         35       1    1fy2z             1.250720       5.445649
                         35       1    1fyz2             1.250720       5.445649
                         35       1    1fz3              1.250720       2.435368

                         36       1    1fx3              0.575997       0.425500
                         36       1    1fx2y             0.575997       0.951448
                         36       1    1fx2z             0.575997       0.951448
                         36       1    1fxy2             0.575997       0.951448
                         36       1    1fxyz             0.575997       1.647956
                         36       1    1fxz2             0.575997       0.951448
                         36       1    1fy3              0.575997       0.425500
                         36       1    1fy2z             0.575997       0.951448
                         36       1    1fyz2             0.575997       0.951448
                         36       1    1fz3              0.575997       0.425500

                         37       1    1fx3              0.334257       0.125065
                         37       1    1fx2y             0.334257       0.279654
                         37       1    1fx2z             0.334257       0.279654
                         37       1    1fxy2             0.334257       0.279654
                         37       1    1fxyz             0.334257       0.484374
                         37       1    1fxz2             0.334257       0.279654
                         37       1    1fy3              0.334257       0.125065
                         37       1    1fy2z             0.334257       0.279654
                         37       1    1fyz2             0.334257       0.279654
                         37       1    1fz3              0.334257       0.125065

                         38       1    1fx3              0.216355       0.046998
                         38       1    1fx2y             0.216355       0.105091
                         38       1    1fx2z             0.216355       0.105091
                         38       1    1fxy2             0.216355       0.105091
                         38       1    1fxyz             0.216355       0.182023
                         38       1    1fxz2             0.216355       0.105091
                         38       1    1fy3              0.216355       0.046998
                         38       1    1fy2z             0.216355       0.105091
                         38       1    1fyz2             0.216355       0.105091
                         38       1    1fz3              0.216355       0.046998

                         39       1    1fx3              0.126090       0.013947
                         39       1    1fx2y             0.126090       0.031187
                         39       1    1fx2z             0.126090       0.031187
                         39       1    1fxy2             0.126090       0.031187
                         39       1    1fxyz             0.126090       0.054017
                         39       1    1fxz2             0.126090       0.031187
                         39       1    1fy3              0.126090       0.013947
                         39       1    1fy2z             0.126090       0.031187
                         39       1    1fyz2             0.126090       0.031187
                         39       1    1fz3              0.126090       0.013947

                         40       1    1gx4              2.550100      14.603863
                         40       1    1gx3y             2.550100      38.638190
                         40       1    1gx3z             2.550100      38.638190
                         40       1    1gx2y2            2.550100      49.881689
                         40       1    1gx2yz            2.550100      86.397620
                         40       1    1gx2z2            2.550100      49.881689
                         40       1    1gxy3             2.550100      38.638190
                         40       1    1gxy2z            2.550100      86.397620
                         40       1    1gxyz2            2.550100      86.397620
                         40       1    1gxz3             2.550100      38.638190
                         40       1    1gy4              2.550100      14.603863
                         40       1    1gy3z             2.550100      38.638190
                         40       1    1gy2z2            2.550100      49.881689
                         40       1    1gyz3             2.550100      38.638190
                         40       1    1gz4              2.550100      14.603863

                         41       1    1gx4              1.072600       1.349396
                         41       1    1gx3y             1.072600       3.570166
                         41       1    1gx3z             1.072600       3.570166
                         41       1    1gx2y2            1.072600       4.609064
                         41       1    1gx2yz            1.072600       7.983133
                         41       1    1gx2z2            1.072600       4.609064
                         41       1    1gxy3             1.072600       3.570166
                         41       1    1gxy2z            1.072600       7.983133
                         41       1    1gxyz2            1.072600       7.983133
                         41       1    1gxz3             1.072600       3.570166
                         41       1    1gy4              1.072600       1.349396
                         41       1    1gy3z             1.072600       3.570166
                         41       1    1gy2z2            1.072600       4.609064
                         41       1    1gyz3             1.072600       3.570166
                         41       1    1gz4              1.072600       1.349396

                         42       1    1gx4              0.552581       0.217783
                         42       1    1gx3y             0.552581       0.576200
                         42       1    1gx3z             0.552581       0.576200
                         42       1    1gx2y2            0.552581       0.743871
                         42       1    1gx2yz            0.552581       1.288423
                         42       1    1gx2z2            0.552581       0.743871
                         42       1    1gxy3             0.552581       0.576200
                         42       1    1gxy2z            0.552581       1.288423
                         42       1    1gxyz2            0.552581       1.288423
                         42       1    1gxz3             0.552581       0.576200
                         42       1    1gy4              0.552581       0.217783
                         42       1    1gy3z             0.552581       0.576200
                         42       1    1gy2z2            0.552581       0.743871
                         42       1    1gyz3             0.552581       0.576200
                         42       1    1gz4              0.552581       0.217783

                         43       1    1gx4              0.308050       0.043666
                         43       1    1gx3y             0.308050       0.115529
                         43       1    1gx3z             0.308050       0.115529
                         43       1    1gx2y2            0.308050       0.149148
                         43       1    1gx2yz            0.308050       0.258332
                         43       1    1gx2z2            0.308050       0.149148
                         43       1    1gxy3             0.308050       0.115529
                         43       1    1gxy2z            0.308050       0.258332
                         43       1    1gxyz2            0.308050       0.258332
                         43       1    1gxz3             0.308050       0.115529
                         43       1    1gy4              0.308050       0.043666
                         43       1    1gy3z             0.308050       0.115529
                         43       1    1gy2z2            0.308050       0.149148
                         43       1    1gyz3             0.308050       0.115529
                         43       1    1gz4              0.308050       0.043666

                         44       1    1gx4              0.146581       0.005664
                         44       1    1gx3y             0.146581       0.014986
                         44       1    1gx3z             0.146581       0.014986
                         44       1    1gx2y2            0.146581       0.019347
                         44       1    1gx2yz            0.146581       0.033511
                         44       1    1gx2z2            0.146581       0.019347
                         44       1    1gxy3             0.146581       0.014986
                         44       1    1gxy2z            0.146581       0.033511
                         44       1    1gxyz2            0.146581       0.033511
                         44       1    1gxz3             0.146581       0.014986
                         44       1    1gy4              0.146581       0.005664
                         44       1    1gy3z             0.146581       0.014986
                         44       1    1gy2z2            0.146581       0.019347
                         44       1    1gyz3             0.146581       0.014986
                         44       1    1gz4              0.146581       0.005664

                         45       1    1hx5              1.512580       2.847271
                         45       1    1hx4y             1.512580       8.541813
                         45       1    1hx4z             1.512580       8.541813
                         45       1    1hx3y2            1.512580      13.047835
                         45       1    1hx3yz            1.512580      22.599514
                         45       1    1hx3z2            1.512580      13.047835
                         45       1    1hx2y3            1.512580      13.047835
                         45       1    1hx2y2z           1.512580      29.175846
                         45       1    1hx2yz2           1.512580      29.175846
                         45       1    1hx2z3            1.512580      13.047835
                         45       1    1hxy4             1.512580       8.541813
                         45       1    1hxy3z            1.512580      22.599514
                         45       1    1hxy2z2           1.512580      29.175846
                         45       1    1hxyz3            1.512580      22.599514
                         45       1    1hxz4             1.512580       8.541813
                         45       1    1hy5              1.512580       2.847271
                         45       1    1hy4z             1.512580       8.541813
                         45       1    1hy3z2            1.512580      13.047835
                         45       1    1hy2z3            1.512580      13.047835
                         45       1    1hyz4             1.512580       8.541813
                         45       1    1hz5              1.512580       2.847271

                         46       1    1hx5              0.457920       0.058602
                         46       1    1hx4y             0.457920       0.175805
                         46       1    1hx4z             0.457920       0.175805
                         46       1    1hx3y2            0.457920       0.268547
                         46       1    1hx3yz            0.457920       0.465137
                         46       1    1hx3z2            0.457920       0.268547
                         46       1    1hx2y3            0.457920       0.268547
                         46       1    1hx2y2z           0.457920       0.600489
                         46       1    1hx2yz2           0.457920       0.600489
                         46       1    1hx2z3            0.457920       0.268547
                         46       1    1hxy4             0.457920       0.175805
                         46       1    1hxy3z            0.457920       0.465137
                         46       1    1hxy2z2           0.457920       0.600489
                         46       1    1hxyz3            0.457920       0.465137
                         46       1    1hxz4             0.457920       0.175805
                         46       1    1hy5              0.457920       0.058602
                         46       1    1hy4z             0.457920       0.175805
                         46       1    1hy3z2            0.457920       0.268547
                         46       1    1hy2z3            0.457920       0.268547
                         46       1    1hyz4             0.457920       0.175805
                         46       1    1hz5              0.457920       0.058602

                         47       1    1hx5              0.292537       0.013659
                         47       1    1hx4y             0.292537       0.040978
                         47       1    1hx4z             0.292537       0.040978
                         47       1    1hx3y2            0.292537       0.062595
                         47       1    1hx3yz            0.292537       0.108418
                         47       1    1hx3z2            0.292537       0.062595
                         47       1    1hx2y3            0.292537       0.062595
                         47       1    1hx2y2z           0.292537       0.139967
                         47       1    1hx2yz2           0.292537       0.139967
                         47       1    1hx2z3            0.292537       0.062595
                         47       1    1hxy4             0.292537       0.040978
                         47       1    1hxy3z            0.292537       0.108418
                         47       1    1hxy2z2           0.292537       0.139967
                         47       1    1hxyz3            0.292537       0.108418
                         47       1    1hxz4             0.292537       0.040978
                         47       1    1hy5              0.292537       0.013659
                         47       1    1hy4z             0.292537       0.040978
                         47       1    1hy3z2            0.292537       0.062595
                         47       1    1hy2z3            0.292537       0.062595
                         47       1    1hyz4             0.292537       0.040978
                         47       1    1hz5              0.292537       0.013659

                         48       1    1ix6              1.074570       0.585879
                         48       1    1ix5y             1.074570       1.943141
                         48       1    1ix5z             1.074570       1.943141
                         48       1    1ix4y2            1.074570       3.365619
                         48       1    1ix4yz            1.074570       5.829423
                         48       1    1ix4z2            1.074570       3.365619
                         48       1    1ix3y3            1.074570       3.982254
                         48       1    1ix3y2z           1.074570       8.904591
                         48       1    1ix3yz2           1.074570       8.904591
                         48       1    1ix3z3            1.074570       3.982254
                         48       1    1ix2y4            1.074570       3.365619
                         48       1    1ix2y3z           1.074570       8.904591
                         48       1    1ix2y2z2          1.074570      11.495778
                         48       1    1ix2yz3           1.074570       8.904591
                         48       1    1ix2z4            1.074570       3.365619
                         48       1    1ixy5             1.074570       1.943141
                         48       1    1ixy4z            1.074570       5.829423
                         48       1    1ixy3z2           1.074570       8.904591
                         48       1    1ixy2z3           1.074570       8.904591
                         48       1    1ixyz4            1.074570       5.829423
                         48       1    1ixz5             1.074570       1.943141
                         48       1    1iy6              1.074570       0.585879
                         48       1    1iy5z             1.074570       1.943141
                         48       1    1iy4z2            1.074570       3.365619
                         48       1    1iy3z3            1.074570       3.982254
                         48       1    1iy2z4            1.074570       3.365619
                         48       1    1iyz5             1.074570       1.943141
                         48       1    1iz6              1.074570       0.585879

     The atoms of this atomic kind are PAW atoms (GAPW):
       Hard Gaussian function radius:                                      1.512
       Rho0 radius:                                                        1.512
       Maximum GTO radius used for PAW projector construction:            24.566

     GAPW Soft Basis Set                                          def2-QZVP_soft

       Number of orbital shell sets:                                          19
       Number of orbital shells:                                              19
       Number of primitive Cartesian functions:                               17
       Number of Cartesian basis functions:                                   58
       Number of spherical basis functions:                                   51
       Norm type:                                                              2

       Normalised Cartesian orbitals:

                        Set   Shell   Orbital            Exponent    Coefficient

                          1       1    1s         

                          2       1    1s         

                          3       1    1s         

                          4       1    1s                3.540299       1.839459

                          5       1    1s                1.545085       0.987698

                          6       1    1s                0.665402       0.525077

                          7       1    1s                0.143554       0.166216

                          8       1    1s                0.066625       0.093462

                          9       1    1s                0.029773       0.051083

                         10       1    1px               2.010047       1.312849
                                                         0.873848       0.343401
                         10       1    1py               2.010047       1.312849
                                                         0.873848       0.343401
                         10       1    1pz               2.010047       1.312849
                                                         0.873848       0.343401

                         11       1    1px               0.356151       0.392177
                         11       1    1py               0.356151       0.392177
                         11       1    1pz               0.356151       0.392177

                         12       1    1px               0.189960       0.178758
                         12       1    1py               0.189960       0.178758
                         12       1    1pz               0.189960       0.178758

                         13       1    1px               0.074580       0.055554
                         13       1    1py               0.074580       0.055554
                         13       1    1pz               0.074580       0.055554

                         14       1    1px               0.029222       0.017221
                         14       1    1py               0.029222       0.017221
                         14       1    1pz               0.029222       0.017221

                         15       1    1dx2              3.810000      17.101262
                         15       1    1dxy              3.810000      29.620255
                         15       1    1dxz              3.810000      29.620255
                         15       1    1dy2              3.810000      17.101262
                         15       1    1dyz              3.810000      29.620255
                         15       1    1dz2              3.810000      17.101262

                         16       1    1dx2              0.650000       0.774476
                         16       1    1dxy              0.650000       1.341431
                         16       1    1dxz              0.650000       1.341431
                         16       1    1dy2              0.650000       0.774476
                         16       1    1dyz              0.650000       1.341431
                         16       1    1dz2              0.650000       0.774476

                         17       1    1dx2              0.200000       0.098449
                         17       1    1dxy              0.200000       0.170519
                         17       1    1dxz              0.200000       0.170519
                         17       1    1dy2              0.200000       0.098449
                         17       1    1dyz              0.200000       0.170519
                         17       1    1dz2              0.200000       0.098449

                         18       1    1dx2              0.052000       0.009320
                         18       1    1dxy              0.052000       0.016143
                         18       1    1dxz              0.052000       0.016143
                         18       1    1dy2              0.052000       0.009320
                         18       1    1dyz              0.052000       0.016143
                         18       1    1dz2              0.052000       0.009320

                         19       1    1fx3              0.160000       0.023836
                         19       1    1fx2y             0.160000       0.053298
                         19       1    1fx2z             0.160000       0.053298
                         19       1    1fxy2             0.160000       0.053298
                         19       1    1fxyz             0.160000       0.092315
                         19       1    1fxz2             0.160000       0.053298
                         19       1    1fy3              0.160000       0.023836
                         19       1    1fy2z             0.160000       0.053298
                         19       1    1fyz2             0.160000       0.053298
                         19       1    1fz3              0.160000       0.023836

     AE Potential information for                                            ALL

       Description:                                       All-electron potential
                                          Krack, Parrinello, PCCP 2, 2105 (2000)

       Gaussian exponent of the core charge distribution:              11.236029
       Electronic configuration (s p d ...):                           6   6   0

  2. Atomic kind: O                                     Number of atoms:       1

     Orbital Basis Set                                                 def2-QZVP

       Number of orbital shell sets:                                          17
       Number of orbital shells:                                              17
       Number of primitive Cartesian functions:                               29
       Number of Cartesian basis functions:                                   72
       Number of spherical basis functions:                                   57
       Norm type:                                                              2

       Normalised Cartesian orbitals:

                        Set   Shell   Orbital            Exponent    Coefficient

                          1       1    1s           116506.469080       0.323542
                                                     17504.349724       0.604284
                                                      3993.451323       1.042947
                                                      1133.006319       1.694135
                                                       369.995696       2.585616
                                                       133.620743       3.631450
                                                        52.035644       4.414414
                                                        21.461939       4.188022

                          2       1    1s               89.835051       1.972527
                                                        26.428011       7.687249

                          3       1    1s                9.282282       3.790104

                          4       1    1s                4.094773       2.051552

                          5       1    1s                1.325535       0.880448

                          6       1    1s                0.518772       0.435655

                          7       1    1s                0.197727       0.211329

                          8       1    1px             191.152558       2.569255
                                                        45.233357       3.383308
                                                        14.353466       3.764009
                                                         5.242237       3.495516
                                                         2.079242       2.436773
                          8       1    1py             191.152558       2.569255
                                                        45.233357       3.383308
                                                        14.353466       3.764009
                                                         5.242237       3.495516
                                                         2.079242       2.436773
                          8       1    1pz             191.152558       2.569255
                                                        45.233357       3.383308
                                                        14.353466       3.764009
                                                         5.242237       3.495516
                                                         2.079242       2.436773

                          9       1    1px               0.842824       1.151095
                          9       1    1py               0.842824       1.151095
                          9       1    1pz               0.842824       1.151095

                         10       1    1px               0.336177       0.364880
                         10       1    1py               0.336177       0.364880
                         10       1    1pz               0.336177       0.364880

                         11       1    1px               0.128640       0.109815
                         11       1    1py               0.128640       0.109815
                         11       1    1pz               0.128640       0.109815

                         12       1    1dx2              3.775000      16.827288
                         12       1    1dxy              3.775000      29.145718
                         12       1    1dxz              3.775000      29.145718
                         12       1    1dy2              3.775000      16.827288
                         12       1    1dyz              3.775000      29.145718
                         12       1    1dz2              3.775000      16.827288

                         13       1    1dx2              1.300000       2.605016
                         13       1    1dxy              1.300000       4.512019
                         13       1    1dxz              1.300000       4.512019
                         13       1    1dy2              1.300000       2.605016
                         13       1    1dyz              1.300000       4.512019
                         13       1    1dz2              1.300000       2.605016

                         14       1    1dx2              0.444000       0.397493
                         14       1    1dxy              0.444000       0.688478
                         14       1    1dxz              0.444000       0.688478
                         14       1    1dy2              0.444000       0.397493
                         14       1    1dyz              0.444000       0.688478
                         14       1    1dz2              0.444000       0.397493

                         15       1    1fx3              2.666000      13.370258
                         15       1    1fx2y             2.666000      29.896805
                         15       1    1fx2z             2.666000      29.896805
                         15       1    1fxy2             2.666000      29.896805
                         15       1    1fxyz             2.666000      51.782785
                         15       1    1fxz2             2.666000      29.896805
                         15       1    1fy3              2.666000      13.370258
                         15       1    1fy2z             2.666000      29.896805
                         15       1    1fyz2             2.666000      29.896805
                         15       1    1fz3              2.666000      13.370258

                         16       1    1fx3              0.859000       1.045777
                         16       1    1fx2y             0.859000       2.338428
                         16       1    1fx2z             0.859000       2.338428
                         16       1    1fxy2             0.859000       2.338428
                         16       1    1fxyz             0.859000       4.050277
                         16       1    1fxz2             0.859000       2.338428
                         16       1    1fy3              0.859000       1.045777
                         16       1    1fy2z             0.859000       2.338428
                         16       1    1fyz2             0.859000       2.338428
                         16       1    1fz3              0.859000       1.045777

                         17       1    1gx4              1.846000       6.005824
                         17       1    1gx3y             1.846000      15.889916
                         17       1    1gx3z             1.846000      15.889916
                         17       1    1gx2y2            1.846000      20.513794
                         17       1    1gx2yz            1.846000      35.530933
                         17       1    1gx2z2            1.846000      20.513794
                         17       1    1gxy3             1.846000      15.889916
                         17       1    1gxy2z            1.846000      35.530933
                         17       1    1gxyz2            1.846000      35.530933
                         17       1    1gxz3             1.846000      15.889916
                         17       1    1gy4              1.846000       6.005824
                         17       1    1gy3z             1.846000      15.889916
                         17       1    1gy2z2            1.846000      20.513794
                         17       1    1gyz3             1.846000      15.889916
                         17       1    1gz4              1.846000       6.005824

     RI Auxiliary Basis Set                                                RI-5Z

       Number of orbital shell sets:                                          38
       Number of orbital shells:                                              38
       Number of primitive Cartesian functions:                               38
       Number of Cartesian basis functions:                                  259
       Number of spherical basis functions:                                  180
       Norm type:                                                              2

       Normalised Cartesian orbitals:

                        Set   Shell   Orbital            Exponent    Coefficient

                          1       1    1s              488.561000      74.062640

                          2       1    1s              105.279000      23.424288

                          3       1    1s               28.708200       8.839233

                          4       1    1s               14.825500       5.384769

                          5       1    1s                5.831540       2.674530

                          6       1    1s                3.595370       1.860878

                          7       1    1s                1.940030       1.171565

                          8       1    1s                1.058590       0.743800

                          9       1    1s                0.474911       0.407727

                         10       1    1s                0.251005       0.252739

                         11       1    1px              94.256600     418.629472
                         11       1    1py              94.256600     418.629472
                         11       1    1pz              94.256600     418.629472

                         12       1    1px              25.465100      81.540209
                         12       1    1py              25.465100      81.540209
                         12       1    1pz              25.465100      81.540209

                         13       1    1px              11.049300      28.714982
                         13       1    1py              11.049300      28.714982
                         13       1    1pz              11.049300      28.714982

                         14       1    1px               4.708760       9.887199
                         14       1    1py               4.708760       9.887199
                         14       1    1pz               4.708760       9.887199

                         15       1    1px               2.756880       5.063635
                         15       1    1py               2.756880       5.063635
                         15       1    1pz               2.756880       5.063635

                         16       1    1px               1.274280       1.929839
                         16       1    1py               1.274280       1.929839
                         16       1    1pz               1.274280       1.929839

                         17       1    1px               0.696641       0.907197
                         17       1    1py               0.696641       0.907197
                         17       1    1pz               0.696641       0.907197

                         18       1    1px               0.416519       0.476962
                         18       1    1py               0.416519       0.476962
                         18       1    1pz               0.416519       0.476962

                         19       1    1dx2             21.988200     367.486504
                         19       1    1dxy             21.988200     636.505295
                         19       1    1dxz             21.988200     636.505295
                         19       1    1dy2             21.988200     367.486504
                         19       1    1dyz             21.988200     636.505295
                         19       1    1dz2             21.988200     367.486504

                         20       1    1dx2              7.274420      53.034271
                         20       1    1dxy              7.274420      91.858053
                         20       1    1dxz              7.274420      91.858053
                         20       1    1dy2              7.274420      53.034271
                         20       1    1dyz              7.274420      91.858053
                         20       1    1dz2              7.274420      53.034271

                         21       1    1dx2              4.518780      23.051360
                         21       1    1dxy              4.518780      39.926127
                         21       1    1dxz              4.518780      39.926127
                         21       1    1dy2              4.518780      23.051360
                         21       1    1dyz              4.518780      39.926127
                         21       1    1dz2              4.518780      23.051360

                         22       1    1dx2              2.719410       9.478512
                         22       1    1dxy              2.719410      16.417264
                         22       1    1dxz              2.719410      16.417264
                         22       1    1dy2              2.719410       9.478512
                         22       1    1dyz              2.719410      16.417264
                         22       1    1dz2              2.719410       9.478512

                         23       1    1dx2              1.442130       3.123685
                         23       1    1dxy              1.442130       5.410380
                         23       1    1dxz              1.442130       5.410380
                         23       1    1dy2              1.442130       3.123685
                         23       1    1dyz              1.442130       5.410380
                         23       1    1dz2              1.442130       3.123685

                         24       1    1dx2              0.719024       0.924082
                         24       1    1dxy              0.719024       1.600557
                         24       1    1dxz              0.719024       1.600557
                         24       1    1dy2              0.719024       0.924082
                         24       1    1dyz              0.719024       1.600557
                         24       1    1dz2              0.719024       0.924082

                         25       1    1dx2              0.303063       0.203747
                         25       1    1dxy              0.303063       0.352901
                         25       1    1dxz              0.303063       0.352901
                         25       1    1dy2              0.303063       0.203747
                         25       1    1dyz              0.303063       0.352901
                         25       1    1dz2              0.303063       0.203747

                         26       1    1fx3             14.098700     567.031722
                         26       1    1fx2y            14.098700    1267.921477
                         26       1    1fx2z            14.098700    1267.921477
                         26       1    1fxy2            14.098700    1267.921477
                         26       1    1fxyz            14.098700    2196.104418
                         26       1    1fxz2            14.098700    1267.921477
                         26       1    1fy3             14.098700     567.031722
                         26       1    1fy2z            14.098700    1267.921477
                         26       1    1fyz2            14.098700    1267.921477
                         26       1    1fz3             14.098700     567.031722

                         27       1    1fx3              6.442910      97.361912
                         27       1    1fx2y             6.442910     217.707854
                         27       1    1fx2z             6.442910     217.707854
                         27       1    1fxy2             6.442910     217.707854
                         27       1    1fxyz             6.442910     377.081065
                         27       1    1fxz2             6.442910     217.707854
                         27       1    1fy3              6.442910      97.361912
                         27       1    1fy2z             6.442910     217.707854
                         27       1    1fyz2             6.442910     217.707854
                         27       1    1fz3              6.442910      97.361912

                         28       1    1fx3              3.721040      28.310609
                         28       1    1fx2y             3.721040      63.304446
                         28       1    1fx2z             3.721040      63.304446
                         28       1    1fxy2             3.721040      63.304446
                         28       1    1fxyz             3.721040     109.646517
                         28       1    1fxz2             3.721040      63.304446
                         28       1    1fy3              3.721040      28.310609
                         28       1    1fy2z             3.721040      63.304446
                         28       1    1fyz2             3.721040      63.304446
                         28       1    1fz3              3.721040      28.310609

                         29       1    1fx3              2.093740       7.763019
                         29       1    1fx2y             2.093740      17.358638
                         29       1    1fx2z             2.093740      17.358638
                         29       1    1fxy2             2.093740      17.358638
                         29       1    1fxyz             2.093740      30.066042
                         29       1    1fxz2             2.093740      17.358638
                         29       1    1fy3              2.093740       7.763019
                         29       1    1fy2z             2.093740      17.358638
                         29       1    1fyz2             2.093740      17.358638
                         29       1    1fz3              2.093740       7.763019

                         30       1    1fx3              1.185310       2.158124
                         30       1    1fx2y             1.185310       4.825711
                         30       1    1fx2z             1.185310       4.825711
                         30       1    1fxy2             1.185310       4.825711
                         30       1    1fxyz             1.185310       8.358377
                         30       1    1fxz2             1.185310       4.825711
                         30       1    1fy3              1.185310       2.158124
                         30       1    1fy2z             1.185310       4.825711
                         30       1    1fyz2             1.185310       4.825711
                         30       1    1fz3              1.185310       2.158124

                         31       1    1fx3              0.621013       0.504001
                         31       1    1fx2y             0.621013       1.126979
                         31       1    1fx2z             0.621013       1.126979
                         31       1    1fxy2             0.621013       1.126979
                         31       1    1fxyz             0.621013       1.951986
                         31       1    1fxz2             0.621013       1.126979
                         31       1    1fy3              0.621013       0.504001
                         31       1    1fy2z             0.621013       1.126979
                         31       1    1fyz2             0.621013       1.126979
                         31       1    1fz3              0.621013       0.504001

                         32       1    1gx4              7.014070     235.968042
                         32       1    1gx3y             7.014070     624.312756
                         32       1    1gx3z             7.014070     624.312756
                         32       1    1gx2y2            7.014070     805.984303
                         32       1    1gx2yz            7.014070    1396.005762
                         32       1    1gx2z2            7.014070     805.984303
                         32       1    1gxy3             7.014070     624.312756
                         32       1    1gxy2z            7.014070    1396.005762
                         32       1    1gxyz2            7.014070    1396.005762
                         32       1    1gxz3             7.014070     624.312756
                         32       1    1gy4              7.014070     235.968042
                         32       1    1gy3z             7.014070     624.312756
                         32       1    1gy2z2            7.014070     805.984303
                         32       1    1gyz3             7.014070     624.312756
                         32       1    1gz4              7.014070     235.968042

                         33       1    1gx4              3.883140      46.418255
                         33       1    1gx3y             3.883140     122.811159
                         33       1    1gx3z             3.883140     122.811159
                         33       1    1gx2y2            3.883140     158.548524
                         33       1    1gx2yz            3.883140     274.614099
                         33       1    1gx2z2            3.883140     158.548524
                         33       1    1gxy3             3.883140     122.811159
                         33       1    1gxy2z            3.883140     274.614099
                         33       1    1gxyz2            3.883140     274.614099
                         33       1    1gxz3             3.883140     122.811159
                         33       1    1gy4              3.883140      46.418255
                         33       1    1gy3z             3.883140     122.811159
                         33       1    1gy2z2            3.883140     158.548524
                         33       1    1gyz3             3.883140     122.811159
                         33       1    1gz4              3.883140      46.418255

                         34       1    1gx4              2.038250       7.886665
                         34       1    1gx3y             2.038250      20.866155
                         34       1    1gx3z             2.038250      20.866155
                         34       1    1gx2y2            2.038250      26.938091
                         34       1    1gx2yz            2.038250      46.658142
                         34       1    1gx2z2            2.038250      26.938091
                         34       1    1gxy3             2.038250      20.866155
                         34       1    1gxy2z            2.038250      46.658142
                         34       1    1gxyz2            2.038250      46.658142
                         34       1    1gxz3             2.038250      20.866155
                         34       1    1gy4              2.038250       7.886665
                         34       1    1gy3z             2.038250      20.866155
                         34       1    1gy2z2            2.038250      26.938091
                         34       1    1gyz3             2.038250      20.866155
                         34       1    1gz4              2.038250       7.886665

                         35       1    1gx4              1.007810       1.136912
[...]


 SCF WAVEFUNCTION OPTIMIZATION

  Step     Update method      Time    Convergence         Total energy    Change
  ------------------------------------------------------------------------------
     1 P_Mix/Diag. 0.40E+00    2.6     0.63864344      -275.0884129118 -2.75E+02
     2 P_Mix/Diag. 0.40E+00    4.0     0.21746930      -275.0606294314  2.78E-02
     3 P_Mix/Diag. 0.40E+00    4.5     0.40749346      -274.8131980349  2.47E-01
     4 P_Mix/Diag. 0.40E+00    3.6     0.19765009      -274.9168103963 -1.04E-01
     5 P_Mix/Diag. 0.40E+00    3.6     0.30987819      -274.8276253753  8.92E-02
     6 P_Mix/Diag. 0.40E+00    3.6     0.25419045      -274.9075132659 -7.99E-02
     7 P_Mix/Diag. 0.40E+00    3.6     0.28734254      -274.7402026702  1.67E-01
     8 P_Mix/Diag. 0.40E+00    3.5     0.24077475      -274.8701081200 -1.30E-01
     9 P_Mix/Diag. 0.40E+00    3.5     0.26890234      -274.7881694437  8.19E-02
    10 P_Mix/Diag. 0.40E+00    3.5     0.27659682      -274.8857823182 -9.76E-02
    11 P_Mix/Diag. 0.40E+00    3.5     0.27180396      -274.7372675558  1.49E-01
    12 P_Mix/Diag. 0.40E+00    3.5     0.25460677      -274.8663643638 -1.29E-01
    13 P_Mix/Diag. 0.40E+00    3.4     0.26506484      -274.7778551565  8.85E-02
    14 P_Mix/Diag. 0.40E+00    3.3     0.27682657      -274.8809818100 -1.03E-01
    15 P_Mix/Diag. 0.40E+00    3.3     0.26964185      -274.7417333940  1.39E-01
    16 P_Mix/Diag. 0.40E+00    3.4     0.25890824      -274.8676083764 -1.26E-01
    17 P_Mix/Diag. 0.40E+00    3.3     0.26545261      -274.7726170008  9.50E-02
    18 P_Mix/Diag. 0.40E+00    3.3     0.27486556      -274.8788898982 -1.06E-01
    19 P_Mix/Diag. 0.40E+00    3.3     0.26912388      -274.7458852982  1.33E-01
    20 P_Mix/Diag. 0.40E+00    3.3     0.26131124      -274.8690540334 -1.23E-01
    21 P_Mix/Diag. 0.40E+00    3.3     0.26607670      -274.7690101061  1.00E-01
    22 P_Mix/Diag. 0.40E+00    3.2     0.27312848      -274.8775236865 -1.09E-01
    23 P_Mix/Diag. 0.40E+00    3.2     0.26882792      -274.7490677175  1.28E-01
    24 P_Mix/Diag. 0.40E+00    3.2     0.26298524      -274.8701967425 -1.21E-01
    25 P_Mix/Diag. 0.40E+00    3.3     0.26654912      -274.7663455646  1.04E-01
    26 P_Mix/Diag. 0.40E+00    3.3     0.27179218      -274.8765290678 -1.10E-01
    27 P_Mix/Diag. 0.40E+00    3.2     0.26859473      -274.7514433087  1.25E-01
    28 P_Mix/Diag. 0.40E+00    3.3     0.26421064      -274.8710567712 -1.20E-01
    29 P_Mix/Diag. 0.40E+00    3.3     0.26688472      -274.7643523359  1.07E-01
    30 P_Mix/Diag. 0.40E+00    3.3     0.27078511      -274.8757892251 -1.11E-01
    31 P_Mix/Diag. 0.40E+00    3.2     0.26840646      -274.7532117312  1.23E-01
    32 P_Mix/Diag. 0.40E+00    3.3     0.26511776      -274.8716994100 -1.18E-01
    33 P_Mix/Diag. 0.40E+00    3.3     0.26712365      -274.7628586715  1.09E-01
    34 P_Mix/Diag. 0.40E+00    3.4     0.27002889      -274.8752365941 -1.12E-01
    35 P_Mix/Diag. 0.40E+00    3.3     0.26825711      -274.7545291058  1.21E-01
    36 P_Mix/Diag. 0.40E+00    3.2     0.26579178      -274.8721793082 -1.18E-01
    37 P_Mix/Diag. 0.40E+00    3.2     0.26729543      -274.7617395012  1.10E-01
    38 P_Mix/Diag. 0.40E+00    3.2     0.26946163      -274.8748234354 -1.13E-01
    39 P_Mix/Diag. 0.40E+00    3.3     0.26814054      -274.7555114034  1.19E-01
    40 P_Mix/Diag. 0.40E+00    3.2     0.26629355      -274.8725377764 -1.17E-01
    41 P_Mix/Diag. 0.40E+00    3.2     0.26742005      -274.7609012609  1.12E-01
    42 P_Mix/Diag. 0.40E+00    3.2     0.26903640      -274.8745144840 -1.14E-01
    43 P_Mix/Diag. 0.40E+00    3.2     0.26805064      -274.7562443937  1.18E-01
    44 P_Mix/Diag. 0.40E+00    3.2     0.26666756      -274.8728056184 -1.17E-01
    45 P_Mix/Diag. 0.40E+00    3.2     0.26751111      -274.7602736690  1.13E-01
    46 P_Mix/Diag. 0.40E+00    3.3     0.26871783      -274.8742834466 -1.14E-01
    47 P_Mix/Diag. 0.40E+00    3.2     0.26798188      -274.7567916446  1.17E-01
    48 P_Mix/Diag. 0.40E+00    3.3     0.26694657      -274.8730057872 -1.16E-01
    49 P_Mix/Diag. 0.40E+00    3.2     0.26757801      -274.7598039369  1.13E-01
    50 P_Mix/Diag. 0.40E+00    3.1     0.26847926      -274.8741106753 -1.14E-01
    51 P_Mix/Diag. 0.40E+00    3.2     0.26792961      -274.7572003804  1.17E-01
    52 P_Mix/Diag. 0.40E+00    3.2     0.26715485      -274.8731554022 -1.16E-01
    53 P_Mix/Diag. 0.40E+00    3.2     0.26762737      -274.7594524450  1.14E-01
    54 P_Mix/Diag. 0.40E+00    3.2     0.26830067      -274.8739814788 -1.15E-01
    55 P_Mix/Diag. 0.40E+00    3.2     0.26789004      -274.7575057459  1.16E-01
    56 P_Mix/Diag. 0.40E+00    3.3     0.26731038      -274.8732672414 -1.16E-01
    57 P_Mix/Diag. 0.40E+00    3.2     0.26766391      -274.7591894811  1.14E-01
    58 P_Mix/Diag. 0.40E+00    3.2     0.26816702      -274.8738848695 -1.15E-01
    59 P_Mix/Diag. 0.40E+00    3.3     0.26786018      -274.7577339302  1.16E-01
    60 P_Mix/Diag. 0.40E+00    3.2     0.26742657      -274.8733508482 -1.16E-01
    61 P_Mix/Diag. 0.40E+00    3.2     0.26769103      -274.7589927775  1.14E-01
    62 P_Mix/Diag. 0.40E+00    3.3     0.26806702      -274.8738126298 -1.15E-01
    63 P_Mix/Diag. 0.40E+00    3.3     0.26783771      -274.7579044662  1.16E-01
    64 P_Mix/Diag. 0.40E+00    3.2     0.26751338      -274.8734133521 -1.16E-01
    65 P_Mix/Diag. 0.40E+00    3.3     0.26771119      -274.7588456549  1.15E-01
    66 P_Mix/Diag. 0.40E+00    3.2     0.26799222      -274.8737586136 -1.15E-01
    67 P_Mix/Diag. 0.40E+00    3.3     0.26782082      -274.7580319322  1.16E-01
    68 P_Mix/Diag. 0.40E+00    3.2     0.26757826      -274.8734600811 -1.15E-01
    69 P_Mix/Diag. 0.40E+00    3.2     0.26772620      -274.7587356256  1.15E-01
    70 P_Mix/Diag. 0.40E+00    3.2     0.26793627      -274.8737182244 -1.15E-01
    71 P_Mix/Diag. 0.40E+00    3.2     0.26780815      -274.7581272134  1.16E-01
    72 P_Mix/Diag. 0.40E+00    3.3     0.26762675      -274.8734950174 -1.15E-01
    73 P_Mix/Diag. 0.40E+00    3.3     0.26773738      -274.7586533428  1.15E-01
    74 P_Mix/Diag. 0.40E+00    3.3     0.26789442      -274.8736880249 -1.15E-01
    75 P_Mix/Diag. 0.40E+00    3.3     0.26779865      -274.7581984407  1.15E-01
    76 P_Mix/Diag. 0.40E+00    3.2     0.26766300      -274.8735211373 -1.15E-01
    77 P_Mix/Diag. 0.40E+00    3.3     0.26774573      -274.7585918125  1.15E-01
    78 P_Mix/Diag. 0.40E+00    3.2     0.26786312      -274.8736654446 -1.15E-01
    79 P_Mix/Diag. 0.40E+00    3.3     0.26779153      -274.7582516889  1.15E-01
    80 P_Mix/Diag. 0.40E+00    3.2     0.26769009      -274.8735406660 -1.15E-01
    81 P_Mix/Diag. 0.40E+00    3.2     0.26775195      -274.7585458025  1.15E-01
    82 P_Mix/Diag. 0.40E+00    3.2     0.26783972      -274.8736485613 -1.15E-01
    83 P_Mix/Diag. 0.40E+00    3.3     0.26778619      -274.7582914976  1.15E-01
    84 P_Mix/Diag. 0.40E+00    3.2     0.26771035      -274.8735552669 -1.15E-01
    85 P_Mix/Diag. 0.40E+00    3.3     0.26775660      -274.7585113989  1.15E-01
    86 P_Mix/Diag. 0.40E+00    3.3     0.26782222      -274.8736359378 -1.15E-01
    87 P_Mix/Diag. 0.40E+00    3.2     0.26778220      -274.7583212596  1.15E-01
    88 P_Mix/Diag. 0.40E+00    3.2     0.26772549      -274.8735661835 -1.15E-01
    89 P_Mix/Diag. 0.40E+00    3.1     0.26776008      -274.7584856745  1.15E-01
    90 P_Mix/Diag. 0.40E+00    3.2     0.26780913      -274.8736264993 -1.15E-01
    91 P_Mix/Diag. 0.40E+00    3.2     0.26777922      -274.7583435108  1.15E-01
    92 P_Mix/Diag. 0.40E+00    3.2     0.26773681      -274.8735743454 -1.15E-01
    93 P_Mix/Diag. 0.40E+00    3.2     0.26776267      -274.7584664400  1.15E-01
    94 P_Mix/Diag. 0.40E+00    3.2     0.26779935      -274.8736194423 -1.15E-01
    95 P_Mix/Diag. 0.40E+00    3.2     0.26777698      -274.7583601469  1.15E-01
    96 P_Mix/Diag. 0.40E+00    3.3     0.26774527      -274.8735804479 -1.15E-01
    97 P_Mix/Diag. 0.40E+00    3.3     0.26776461      -274.7584520582  1.15E-01
    98 P_Mix/Diag. 0.40E+00    3.3     0.26779203      -274.8736141659 -1.15E-01
    99 P_Mix/Diag. 0.40E+00    3.3     0.26777531      -274.7583725849  1.15E-01
   100 P_Mix/Diag. 0.40E+00    3.2     0.26775160      -274.8735850106 -1.15E-01
   101 P_Mix/Diag. 0.40E+00    3.2     0.26776606      -274.7584413050  1.15E-01
   102 P_Mix/Diag. 0.40E+00    3.2     0.26778656      -274.8736102208 -1.15E-01
   103 P_Mix/Diag. 0.40E+00    3.2     0.26777406      -274.7583818844  1.15E-01
   104 P_Mix/Diag. 0.40E+00    3.2     0.26775633      -274.8735884220 -1.15E-01
   105 P_Mix/Diag. 0.40E+00    3.1     0.26776714      -274.7584332649  1.15E-01
   106 P_Mix/Diag. 0.40E+00    3.1     0.26778247      -274.8736072711 -1.15E-01
   107 P_Mix/Diag. 0.40E+00    3.1     0.26777312      -274.7583888373  1.15E-01
   108 P_Mix/Diag. 0.40E+00    3.2     0.26775987      -274.8735909726 -1.15E-01
   109 P_Mix/Diag. 0.40E+00    3.2     0.26776795      -274.7584272534  1.15E-01
   110 P_Mix/Diag. 0.40E+00    3.2     0.26777941      -274.8736050657 -1.15E-01
   111 P_Mix/Diag. 0.40E+00    3.2     0.26777243      -274.7583940358  1.15E-01
   112 P_Mix/Diag. 0.40E+00    3.2     0.26776252      -274.8735928796 -1.15E-01
   113 P_Mix/Diag. 0.40E+00    3.2     0.26776856      -274.7584227587  1.15E-01
   114 P_Mix/Diag. 0.40E+00    3.2     0.26777713      -274.8736034167 -1.15E-01
   115 P_Mix/Diag. 0.40E+00    3.2     0.26777190      -274.7583979226  1.15E-01
   116 P_Mix/Diag. 0.40E+00    3.1     0.26776449      -274.8735943054 -1.15E-01
   117 P_Mix/Diag. 0.40E+00    3.2     0.26776901      -274.7584193980  1.15E-01
   118 P_Mix/Diag. 0.40E+00    3.2     0.26777542      -274.8736021838 -1.15E-01
   119 P_Mix/Diag. 0.40E+00    3.2     0.26777151      -274.7584008286  1.15E-01
   120 P_Mix/Diag. 0.40E+00    3.2     0.26776597      -274.8735953715 -1.15E-01
   121 P_Mix/Diag. 0.40E+00    3.2     0.26776935      -274.7584168853  1.15E-01
   122 P_Mix/Diag. 0.40E+00    3.2     0.26777414      -274.8736012620 -1.15E-01
   123 P_Mix/Diag. 0.40E+00    3.2     0.26777122      -274.7584030013  1.15E-01
   124 P_Mix/Diag. 0.40E+00    3.1     0.26776708      -274.8735961686 -1.15E-01
   125 P_Mix/Diag. 0.40E+00    3.1     0.26776960      -274.7584150066  1.15E-01
   126 P_Mix/Diag. 0.40E+00    3.1     0.26777318      -274.8736005728 -1.15E-01
   127 P_Mix/Diag. 0.40E+00    3.2     0.26777100      -274.7584046259  1.15E-01
   128 P_Mix/Diag. 0.40E+00    3.2     0.26776790      -274.8735967646 -1.15E-01
   129 P_Mix/Diag. 0.40E+00    3.1     0.26776979      -274.7584136020  1.15E-01
   130 P_Mix/Diag. 0.40E+00    3.2     0.26777247      -274.8736000575 -1.15E-01
   131 P_Mix/Diag. 0.40E+00    3.1     0.26777084      -274.7584058405  1.15E-01
   132 P_Mix/Diag. 0.40E+00    3.1     0.26776852      -274.8735972101 -1.15E-01
   133 P_Mix/Diag. 0.40E+00    3.2     0.26776993      -274.7584125517  1.15E-01
   134 P_Mix/Diag. 0.40E+00    3.2     0.26777194      -274.8735996722 -1.15E-01
   135 P_Mix/Diag. 0.40E+00    3.3     0.26777071      -274.7584067486  1.15E-01
   136 P_Mix/Diag. 0.40E+00    3.3     0.26776898      -274.8735975433 -1.15E-01
   137 P_Mix/Diag. 0.40E+00    3.3     0.26777004      -274.7584117665  1.15E-01
   138 P_Mix/Diag. 0.40E+00    3.2     0.26777154      -274.8735993841 -1.15E-01
   139 P_Mix/Diag. 0.40E+00    3.1     0.26777062      -274.7584074276  1.15E-01
   140 P_Mix/Diag. 0.40E+00    3.1     0.26776933      -274.8735977924 -1.15E-01
   141 P_Mix/Diag. 0.40E+00    3.1     0.26777012      -274.7584111794  1.15E-01
   142 P_Mix/Diag. 0.40E+00    3.2     0.26777124      -274.8735991687 -1.15E-01
   143 P_Mix/Diag. 0.40E+00    3.1     0.26777055      -274.7584079353  1.15E-01
   144 P_Mix/Diag. 0.40E+00    3.2     0.26776959      -274.8735979786 -1.15E-01
   145 P_Mix/Diag. 0.40E+00    3.1     0.26777018      -274.7584107404  1.15E-01
   146 P_Mix/Diag. 0.40E+00    3.1     0.26777101      -274.8735990077 -1.15E-01
   147 P_Mix/Diag. 0.40E+00    3.2     0.26777050      -274.7584083149  1.15E-01
   148 P_Mix/Diag. 0.40E+00    3.1     0.26776978      -274.8735981179 -1.15E-01
   149 P_Mix/Diag. 0.40E+00    3.2     0.26777022      -274.7584104122  1.15E-01
   150 P_Mix/Diag. 0.40E+00    3.2     0.26777085      -274.8735988873 -1.15E-01
   151 P_Mix/Diag. 0.40E+00    3.2     0.26777047      -274.7584085987  1.15E-01
   152 P_Mix/Diag. 0.40E+00    3.1     0.26776992      -274.8735982220 -1.15E-01
   153 P_Mix/Diag. 0.40E+00    3.2     0.26777025      -274.7584101668  1.15E-01
   154 P_Mix/Diag. 0.40E+00    3.2     0.26777072      -274.8735987973 -1.15E-01
   155 P_Mix/Diag. 0.40E+00    3.3     0.26777044      -274.7584088109  1.15E-01
   156 P_Mix/Diag. 0.40E+00    3.2     0.26777003      -274.8735982998 -1.15E-01
   157 P_Mix/Diag. 0.40E+00    3.1     0.26777028      -274.7584099833  1.15E-01
   158 P_Mix/Diag. 0.40E+00    3.2     0.26777063      -274.8735987300 -1.15E-01
   159 P_Mix/Diag. 0.40E+00    3.0     0.26777042      -274.7584089695  1.15E-01
   160 P_Mix/Diag. 0.40E+00    3.1     0.26777011      -274.8735983580 -1.15E-01
   161 P_Mix/Diag. 0.40E+00    3.1     0.26777030      -274.7584098461  1.15E-01
   162 P_Mix/Diag. 0.40E+00    3.1     0.26777056      -274.8735986796 -1.15E-01
   163 P_Mix/Diag. 0.40E+00    3.1     0.26777040      -274.7584090881  1.15E-01
   164 P_Mix/Diag. 0.40E+00    3.2     0.26777017      -274.8735984016 -1.15E-01
   165 P_Mix/Diag. 0.40E+00    3.2     0.26777031      -274.7584097436  1.15E-01
   166 P_Mix/Diag. 0.40E+00    3.2     0.26777051      -274.8735986420 -1.15E-01
   167 P_Mix/Diag. 0.40E+00    3.1     0.26777039      -274.7584091768  1.15E-01
   168 P_Mix/Diag. 0.40E+00    3.2     0.26777022      -274.8735984341 -1.15E-01
   169 P_Mix/Diag. 0.40E+00    3.2     0.26777032      -274.7584096669  1.15E-01
   170 P_Mix/Diag. 0.40E+00    3.3     0.26777047      -274.8735986139 -1.15E-01
   171 P_Mix/Diag. 0.40E+00    3.3     0.26777038      -274.7584092431  1.15E-01
   172 P_Mix/Diag. 0.40E+00    3.2     0.26777025      -274.8735984584 -1.15E-01
   173 P_Mix/Diag. 0.40E+00    3.1     0.26777033      -274.7584096095  1.15E-01
   174 P_Mix/Diag. 0.40E+00    3.1     0.26777044      -274.8735985928 -1.15E-01
   175 P_Mix/Diag. 0.40E+00    3.2     0.26777037      -274.7584092927  1.15E-01
   176 P_Mix/Diag. 0.40E+00    3.2     0.26777028      -274.8735984766 -1.15E-01
   177 P_Mix/Diag. 0.40E+00    3.2     0.26777034      -274.7584095667  1.15E-01
   178 P_Mix/Diag. 0.40E+00    3.2     0.26777042      -274.8735985771 -1.15E-01
   179 P_Mix/Diag. 0.40E+00    3.2     0.26777037      -274.7584093298  1.15E-01
   180 P_Mix/Diag. 0.40E+00    3.2     0.26777030      -274.8735984902 -1.15E-01
   181 P_Mix/Diag. 0.40E+00    3.2     0.26777034      -274.7584095346  1.15E-01
   182 P_Mix/Diag. 0.40E+00    3.1     0.26777040      -274.8735985654 -1.15E-01
   183 P_Mix/Diag. 0.40E+00    3.1     0.26777036      -274.7584093575  1.15E-01
   184 P_Mix/Diag. 0.40E+00    3.1     0.26777031      -274.8735985004 -1.15E-01
   185 P_Mix/Diag. 0.40E+00    3.2     0.26777034      -274.7584095106  1.15E-01
   186 P_Mix/Diag. 0.40E+00    3.2     0.26777039      -274.8735985566 -1.15E-01
   187 P_Mix/Diag. 0.40E+00    3.2     0.26777036      -274.7584093782  1.15E-01
   188 P_Mix/Diag. 0.40E+00    3.2     0.26777032      -274.8735985080 -1.15E-01
   189 P_Mix/Diag. 0.40E+00    3.1     0.26777035      -274.7584094927  1.15E-01
   190 P_Mix/Diag. 0.40E+00    3.2     0.26777038      -274.8735985500 -1.15E-01
   191 P_Mix/Diag. 0.40E+00    3.1     0.26777036      -274.7584093937  1.15E-01
   192 P_Mix/Diag. 0.40E+00    3.2     0.26777033      -274.8735985137 -1.15E-01
   193 P_Mix/Diag. 0.40E+00    3.2     0.26777035      -274.7584094793  1.15E-01
   194 P_Mix/Diag. 0.40E+00    3.2     0.26777037      -274.8735985451 -1.15E-01
   195 P_Mix/Diag. 0.40E+00    3.2     0.26777036      -274.7584094053  1.15E-01
   196 P_Mix/Diag. 0.40E+00    3.1     0.26777033      -274.8735985179 -1.15E-01
   197 P_Mix/Diag. 0.40E+00    3.2     0.26777035      -274.7584094693  1.15E-01
   198 P_Mix/Diag. 0.40E+00    3.2     0.26777037      -274.8735985414 -1.15E-01
   199 P_Mix/Diag. 0.40E+00    3.2     0.26777036      -274.7584094140  1.15E-01
   200 P_Mix/Diag. 0.40E+00    3.2     0.26777034      -274.8735985211 -1.15E-01

  Leaving inner SCF loop after reaching   200 steps.


  Electronic density on regular grids:        -12.6111699468        7.3888300532
  Core density on regular grids:               20.0000000000        0.0000000000
  Hard and soft densities (Lebedev):          -31.5411303952      -24.1523000805
  Total Rho_soft + Rho1_hard - Rho1_soft      -20.0000002614
  Total charge density (r-space):              -0.0000002614
  Total Rho_soft + Rho0_soft (g-space):        -0.0000003621

  Overlap energy of the core charge distribution:               0.00000000000000
  Self energy of the core charge distribution:               -265.47584004616471
  Core Hamiltonian energy:                                    -26.50212210796812
  Hartree energy:                                              24.65070531002061
  Exchange-correlation energy:                                 -7.41928288534197

  GAPW| Exc from hard and soft atomic rho1:                   -17.57800384800999
  GAPW| local Eh = 1 center integrals:                         17.45094505637320

  Total energy:                                              -274.87359852109103

 *** WARNING in qs_scf.F:542 :: SCF run NOT converged ***


 !-----------------------------------------------------------------------------!
                     Mulliken Population Analysis

 #  Atom  Element  Kind  Atomic population                           Net charge
       1     Mg       1         13.317359                             -1.317359
       2     O        2          6.682641                              1.317359
 # Total charge                             20.000000                 -0.000000

 !-----------------------------------------------------------------------------!

 !-----------------------------------------------------------------------------!
                           Hirshfeld Charges

  #Atom  Element  Kind  Ref Charge     Population                    Net charge
      1       Mg     1      12.000         13.915                        -1.915
      2       O      2       8.000          6.432                         1.568

  Total Charge                                                           -0.347
 !-----------------------------------------------------------------------------!

 *******************************************************************************
 *   ___                                                                       *
 *  /   \                                                                      *
 * [ABORT]                                                                     *
 *  \___/               SCF not converged: not possible to run MP2             *
 *    |                                                                        *
 *  O/|                                                                        *
 * /| |                                                                        *
 * / \                                                               mp2.F:199 *
 *******************************************************************************


 ===== Routine Calling Stack ===== 

            2 qs_energies
            1 CP2K
--------------------------------------------------------------------------
MPI_ABORT was invoked on rank 0 in communicator MPI_COMM_WORLD
with errorcode 1.

NOTE: invoking MPI_ABORT causes Open MPI to kill all MPI processes.
You may or may not see output from other processes, depending on
exactly when Open MPI kills them.
--------------------------------------------------------------------------
