 DBCSR| CPU Multiplication driver                                           BLAS
 DBCSR| Multrec recursion limit                                              512
 DBCSR| Multiplication stack size                                           1000
 DBCSR| Maximum elements for images                                    UNLIMITED
 DBCSR| Multiplicative factor virtual images                                   1
 DBCSR| Use multiplication densification                                       T
 DBCSR| Multiplication size stacks                                             3
 DBCSR| Number of 3D layers                                               SINGLE
 DBCSR| Use MPI memory allocation                                              T
 DBCSR| Use RMA algorithm                                                      F
 DBCSR| Use Communication thread                                               T
 DBCSR| Communication thread load                                             87


  **** **** ******  **  PROGRAM STARTED AT               2019-05-30 20:35:58.737
 ***** ** ***  *** **   PROGRAM STARTED ON                                tcopt4
 **    ****   ******    PROGRAM STARTED BY                               wilhelm
 ***** **    ** ** **   PROGRAM PROCESS ID                                  5318
  **** **  *******  **  PROGRAM STARTED IN /data/wilhelm/2_job_test/11_GW100/3_c
                                           alcs/02_Ne

 CP2K| version string:                    CP2K version 7.0 (Development Version)
 CP2K| source code revision number:                                  git:026fb12
 CP2K| cp2kflags: libint fftw3 libxc pexsi elpa=201705 parallel mpi3 scalapack q
 CP2K|            uip libderiv_max_am1=5 libint_max_am=6
 CP2K| is freely available from                            https://www.cp2k.org/
 CP2K| Program compiled at                         Sat May 11 13:15:02 CEST 2019
 CP2K| Program compiled on                                                tcopt4
 CP2K| Program compiled for                            local_valgrind_March_2019
 CP2K| Data directory path              /data/wilhelm/1_git_repository/cp2k/data
 CP2K| Input file name                                                    GW.inp

 GLOBAL| Force Environment number                                              1
 GLOBAL| Basis set file name                              BASIS_def2_QZVP_RI_ALL
 GLOBAL| Potential file name                                           POTENTIAL
 GLOBAL| MM Potential file name                                     MM_POTENTIAL
 GLOBAL| Coordinate file name                                          02_Ne.xyz
 GLOBAL| Method name                                                        CP2K
 GLOBAL| Project name                                                   ALL_ELEC
 GLOBAL| Preferred FFT library                                             FFTW3
 GLOBAL| Preferred diagonalization lib.                                       SL
 GLOBAL| Run type                                                         ENERGY
 GLOBAL| All-to-all communication in single precision                          F
 GLOBAL| FFTs using library dependent lengths                                  F
 GLOBAL| Global print level                                               MEDIUM
 GLOBAL| MPI I/O enabled                                                       T
 GLOBAL| Total number of message passing processes                            24
 GLOBAL| Number of threads for this process                                    1
 GLOBAL| This output is from process                                           0
 GLOBAL| CPU model name :  Intel(R) Xeon(R) CPU E5-2697 v3 @ 2.60GHz

 MEMORY| system memory details [Kb]
 MEMORY|                        rank 0           min           max       average
 MEMORY| MemTotal            396954008     396954008     396954008     396954008
 MEMORY| MemFree             250079684     250079684     250079684     250079684
 MEMORY| Buffers                189508        189508        189508        189508
 MEMORY| Cached               12313240      12313240      12313240      12313240
 MEMORY| Slab                   503112        503112        503112        503112
 MEMORY| SReclaimable           360632        360632        360632        360632
 MEMORY| MemLikelyFree       262943064     262943064     262943064     262943064


 *** Fundamental physical constants (SI units) ***

 *** Literature: B. J. Mohr and B. N. Taylor,
 ***             CODATA recommended values of the fundamental physical
 ***             constants: 2006, Web Version 5.1
 ***             http://physics.nist.gov/constants

 Speed of light in vacuum [m/s]                             2.99792458000000E+08
 Magnetic constant or permeability of vacuum [N/A**2]       1.25663706143592E-06
 Electric constant or permittivity of vacuum [F/m]          8.85418781762039E-12
 Planck constant (h) [J*s]                                  6.62606896000000E-34
 Planck constant (h-bar) [J*s]                              1.05457162825177E-34
 Elementary charge [C]                                      1.60217648700000E-19
 Electron mass [kg]                                         9.10938215000000E-31
 Electron g factor [ ]                                     -2.00231930436220E+00
 Proton mass [kg]                                           1.67262163700000E-27
 Fine-structure constant                                    7.29735253760000E-03
 Rydberg constant [1/m]                                     1.09737315685270E+07
 Avogadro constant [1/mol]                                  6.02214179000000E+23
 Boltzmann constant [J/K]                                   1.38065040000000E-23
 Atomic mass unit [kg]                                      1.66053878200000E-27
 Bohr radius [m]                                            5.29177208590000E-11

 *** Conversion factors ***

 [u] -> [a.u.]                                              1.82288848426455E+03
 [Angstrom] -> [Bohr] = [a.u.]                              1.88972613288564E+00
 [a.u.] = [Bohr] -> [Angstrom]                              5.29177208590000E-01
 [a.u.] -> [s]                                              2.41888432650478E-17
 [a.u.] -> [fs]                                             2.41888432650478E-02
 [a.u.] -> [J]                                              4.35974393937059E-18
 [a.u.] -> [N]                                              8.23872205491840E-08
 [a.u.] -> [K]                                              3.15774647902944E+05
 [a.u.] -> [kJ/mol]                                         2.62549961709828E+03
 [a.u.] -> [kcal/mol]                                       6.27509468713739E+02
 [a.u.] -> [Pa]                                             2.94210107994716E+13
 [a.u.] -> [bar]                                            2.94210107994716E+08
 [a.u.] -> [atm]                                            2.90362800883016E+08
 [a.u.] -> [eV]                                             2.72113838565563E+01
 [a.u.] -> [Hz]                                             6.57968392072181E+15
 [a.u.] -> [1/cm] (wave numbers)                            2.19474631370540E+05
 [a.u./Bohr**2] -> [1/cm]                                   5.14048714338585E+03
 

 CELL_TOP| Volume [angstrom^3]:                                         4096.000
 CELL_TOP| Vector a [angstrom    16.000     0.000     0.000    |a| =      16.000
 CELL_TOP| Vector b [angstrom     0.000    16.000     0.000    |b| =      16.000
 CELL_TOP| Vector c [angstrom     0.000     0.000    16.000    |c| =      16.000
 CELL_TOP| Angle (b,c), alpha [degree]:                                   90.000
 CELL_TOP| Angle (a,c), beta  [degree]:                                   90.000
 CELL_TOP| Angle (a,b), gamma [degree]:                                   90.000
 CELL_TOP| Numerically orthorhombic:                                         YES

 GENERATE|  Preliminary Number of Bonds generated:                             0
 GENERATE|  Achieved consistency in connectivity generation.

 CELL| Volume [angstrom^3]:                                             4096.000
 CELL| Vector a [angstrom]:      16.000     0.000     0.000    |a| =      16.000
 CELL| Vector b [angstrom]:       0.000    16.000     0.000    |b| =      16.000
 CELL| Vector c [angstrom]:       0.000     0.000    16.000    |c| =      16.000
 CELL| Angle (b,c), alpha [degree]:                                       90.000
 CELL| Angle (a,c), beta  [degree]:                                       90.000
 CELL| Angle (a,b), gamma [degree]:                                       90.000
 CELL| Numerically orthorhombic:                                             YES

 CELL_REF| Volume [angstrom^3]:                                         4096.000
 CELL_REF| Vector a [angstrom    16.000     0.000     0.000    |a| =      16.000
 CELL_REF| Vector b [angstrom     0.000    16.000     0.000    |b| =      16.000
 CELL_REF| Vector c [angstrom     0.000     0.000    16.000    |c| =      16.000
 CELL_REF| Angle (b,c), alpha [degree]:                                   90.000
 CELL_REF| Angle (a,c), beta  [degree]:                                   90.000
 CELL_REF| Angle (a,b), gamma [degree]:                                   90.000
 CELL_REF| Numerically orthorhombic:                                         YES

 *******************************************************************************
 *******************************************************************************
 **                                                                           **
 **     #####                         ##              ##                      **
 **    ##   ##            ##          ##              ##                      **
 **   ##     ##                       ##            ######                    **
 **   ##     ##  ##   ##  ##   #####  ##  ##   ####   ##    #####    #####    **
 **   ##     ##  ##   ##  ##  ##      ## ##   ##      ##   ##   ##  ##   ##   **
 **   ##  ## ##  ##   ##  ##  ##      ####     ###    ##   ######   ######    **
 **    ##  ###   ##   ##  ##  ##      ## ##      ##   ##   ##       ##        **
 **     #######   #####   ##   #####  ##  ##  ####    ##    #####   ##        **
 **           ##                                                    ##        **
 **                                                                           **
 **                                                ... make the atoms dance   **
 **                                                                           **
 **            Copyright (C) by CP2K developers group (2000 - 2019)           **
 **                                                                           **
 *******************************************************************************

 DFT| Spin restricted Kohn-Sham (RKS) calculation                            RKS
 DFT| Multiplicity                                                             1
 DFT| Number of spin states                                                    1
 DFT| Charge                                                                   0
 DFT| Self-interaction correction (SIC)                                       NO
 DFT| Cutoffs: density                                              1.000000E-10
 DFT|          gradient                                             1.000000E-10
 DFT|          tau                                                  1.000000E-10
 DFT|          cutoff_smoothing_range                               0.000000E+00
 DFT| XC density smoothing                                                  NONE
 DFT| XC derivatives                                                          PW
 FUNCTIONAL| ROUTINE=NEW
 FUNCTIONAL| PBE:
 FUNCTIONAL| J.P.Perdew, K.Burke, M.Ernzerhof, Phys. Rev. Letter, vol. 77, n 18,
 FUNCTIONAL|  pp. 3865-3868, (1996){spin unpolarized}                           

 QS| Method:                                                                GAPW
 QS| Density plane wave grid type                        NON-SPHERICAL FULLSPACE
 QS| Number of grid levels:                                                    4
 QS| Density cutoff [a.u.]:                                                200.0
 QS| Multi grid cutoff [a.u.]: 1) grid level                               200.0
 QS|                           2) grid level                                66.7
 QS|                           3) grid level                                22.2
 QS|                           4) grid level                                 7.4
 QS| Grid level progression factor:                                          3.0
 QS| Relative density cutoff [a.u.]:                                        25.0
 QS| Consistent realspace mapping and integration 
 QS| Interaction thresholds: eps_pgf_orb:                                1.0E-05
 QS|                         eps_filter_matrix:                          0.0E+00
 QS|                         eps_core_charge:                            1.0E-12
 QS|                         eps_rho_gspace:                             1.0E-10
 QS|                         eps_rho_rspace:                             1.0E-10
 QS|                         eps_gvg_rspace:                             1.0E-05
 QS|                         eps_ppl:                                    1.0E-02
 QS|                         eps_ppnl:                                   1.0E-07
 QS| GAPW|                   eps_fit:                                    1.0E-04
 QS| GAPW|                   eps_iso:                                    1.0E-12
 QS| GAPW|                   eps_svd:                                    1.0E-08
 QS| GAPW|                   eps_cpc:                                    1.0E-10
 QS| GAPW|   atom-r-grid: quadrature:                 GC_LOG                        
 QS| GAPW|      atom-s-grid:  max l :                                          8
 QS| GAPW|      max_l_rho0 :                                                   2


 ATOMIC KIND INFORMATION

  1. Atomic kind: Ne                                    Number of atoms:       1

     Orbital Basis Set                                                 def2-QZVP

       Number of orbital shell sets:                                          17
       Number of orbital shells:                                              17
       Number of primitive Cartesian functions:                               30
       Number of Cartesian basis functions:                                   72
       Number of spherical basis functions:                                   57
       Norm type:                                                              2

       Normalised Cartesian orbitals:

                        Set   Shell   Orbital            Exponent    Coefficient

                          1       1    1s           160676.279550       0.446090
                                                     23953.195039       0.837223
                                                      5437.506371       1.444713
                                                      1544.274102       2.328247
                                                       507.888143       3.512920
                                                       184.948477       4.867126
                                                        72.522952       5.787659
                                                        30.088714       5.253304

                          2       1    1s              120.684349       2.692261
                                                        36.074295       9.627353

                          3       1    1s               13.052091       4.894070

                          4       1    1s                5.797478       2.662805

                          5       1    1s                2.047863       1.220073

                          6       1    1s                0.802146       0.604088

                          7       1    1s                0.305487       0.292856

                          8       1    1px             498.433975       2.979644
                                                       118.141092       4.137902
                                                        38.032530       5.056380
                                                        14.183732       5.260574
                                                         5.786419       4.400016
                                                         2.459962       2.645742
                          8       1    1py             498.433975       2.979644
                                                       118.141092       4.137902
                                                        38.032530       5.056380
                                                        14.183732       5.260574
                                                         5.786419       4.400016
                                                         2.459962       2.645742
                          8       1    1pz             498.433975       2.979644
                                                       118.141092       4.137902
                                                        38.032530       5.056380
                                                        14.183732       5.260574
                                                         5.786419       4.400016
                                                         2.459962       2.645742

                          9       1    1px               1.042200       1.500994
                          9       1    1py               1.042200       1.500994
                          9       1    1pz               1.042200       1.500994

                         10       1    1px               0.429877       0.496159
                         10       1    1py               0.429877       0.496159
                         10       1    1pz               0.429877       0.496159

                         11       1    1px               0.168897       0.154336
                         11       1    1py               0.168897       0.154336
                         11       1    1pz               0.168897       0.154336

                         12       1    1dx2              6.471000      43.212501
                         12       1    1dxy              6.471000      74.846248
                         12       1    1dxz              6.471000      74.846248
                         12       1    1dy2              6.471000      43.212501
                         12       1    1dyz              6.471000      74.846248
                         12       1    1dz2              6.471000      43.212501

                         13       1    1dx2              2.213000       6.608866
                         13       1    1dxy              2.213000      11.446891
                         13       1    1dxz              2.213000      11.446891
                         13       1    1dy2              2.213000       6.608866
                         13       1    1dyz              2.213000      11.446891
                         13       1    1dz2              2.213000       6.608866

                         14       1    1dx2              0.747000       0.987917
                         14       1    1dxy              0.747000       1.711123
                         14       1    1dxz              0.747000       1.711123
                         14       1    1dy2              0.747000       0.987917
                         14       1    1dyz              0.747000       1.711123
                         14       1    1dz2              0.747000       0.987917

                         15       1    1fx3              4.657000      46.902229
                         15       1    1fx2y             4.657000     104.876573
                         15       1    1fx2z             4.657000     104.876573
                         15       1    1fxy2             4.657000     104.876573
                         15       1    1fxyz             4.657000     181.651553
                         15       1    1fxz2             4.657000     104.876573
                         15       1    1fy3              4.657000      46.902229
                         15       1    1fy2z             4.657000     104.876573
                         15       1    1fyz2             4.657000     104.876573
                         15       1    1fz3              4.657000      46.902229

                         16       1    1fx3              1.524000       3.799012
                         16       1    1fx2y             1.524000       8.494848
                         16       1    1fx2z             1.524000       8.494848
                         16       1    1fxy2             1.524000       8.494848
                         16       1    1fxyz             1.524000      14.713509
                         16       1    1fxz2             1.524000       8.494848
                         16       1    1fy3              1.524000       3.799012
                         16       1    1fy2z             1.524000       8.494848
                         16       1    1fyz2             1.524000       8.494848
                         16       1    1fz3              1.524000       3.799012

                         17       1    1gx4              2.983000      22.476665
                         17       1    1gx3y             2.983000      59.467666
                         17       1    1gx3z             2.983000      59.467666
                         17       1    1gx2y2            2.983000      76.772426
                         17       1    1gx2yz            2.983000     132.973743
                         17       1    1gx2z2            2.983000      76.772426
                         17       1    1gxy3             2.983000      59.467666
                         17       1    1gxy2z            2.983000     132.973743
                         17       1    1gxyz2            2.983000     132.973743
                         17       1    1gxz3             2.983000      59.467666
                         17       1    1gy4              2.983000      22.476665
                         17       1    1gy3z             2.983000      59.467666
                         17       1    1gy2z2            2.983000      76.772426
                         17       1    1gyz3             2.983000      59.467666
                         17       1    1gz4              2.983000      22.476665

     RI Auxiliary Basis Set                                                RI-5Z

       Number of orbital shell sets:                                          39
       Number of orbital shells:                                              39
       Number of primitive Cartesian functions:                               39
       Number of Cartesian basis functions:                                  287
       Number of spherical basis functions:                                  193
       Norm type:                                                              2

       Normalised Cartesian orbitals:

                        Set   Shell   Orbital            Exponent    Coefficient

                          1       1    1s              812.720000     108.484028

                          2       1    1s              174.700000      34.247571

                          3       1    1s               44.592600      12.298643

                          4       1    1s               26.694500       8.370019

                          5       1    1s                9.386180       3.821877

                          6       1    1s                5.419070       2.531359

                          7       1    1s                3.405580       1.786707

                          8       1    1s                1.556700       0.993262

                          9       1    1s                0.771454       0.586668

                         10       1    1s                0.370078       0.338166

                         11       1    1px             148.323000     737.820494
                         11       1    1py             148.323000     737.820494
                         11       1    1pz             148.323000     737.820494

                         12       1    1px              40.018100     143.469858
                         12       1    1py              40.018100     143.469858
                         12       1    1pz              40.018100     143.469858

                         13       1    1px              18.457600      54.532967
                         13       1    1py              18.457600      54.532967
                         13       1    1pz              18.457600      54.532967

                         14       1    1px               8.050320      19.328872
                         14       1    1py               8.050320      19.328872
                         14       1    1pz               8.050320      19.328872

                         15       1    1px               4.381080       9.034759
                         15       1    1py               4.381080       9.034759
                         15       1    1pz               4.381080       9.034759

                         16       1    1px               2.075890       3.551776
                         16       1    1py               2.075890       3.551776
                         16       1    1pz               2.075890       3.551776

                         17       1    1px               1.102230       1.609831
                         17       1    1py               1.102230       1.609831
                         17       1    1pz               1.102230       1.609831

                         18       1    1px               0.668960       0.862363
                         18       1    1py               0.668960       0.862363
                         18       1    1pz               0.668960       0.862363

                         19       1    1dx2             34.484200     807.690041
                         19       1    1dxy             34.484200    1398.960187
                         19       1    1dxz             34.484200    1398.960187
                         19       1    1dy2             34.484200     807.690041
                         19       1    1dyz             34.484200    1398.960187
                         19       1    1dz2             34.484200     807.690041

                         20       1    1dx2             10.919700     107.963808
                         20       1    1dxy             10.919700     186.998801
                         20       1    1dxz             10.919700     186.998801
                         20       1    1dy2             10.919700     107.963808
                         20       1    1dyz             10.919700     186.998801
                         20       1    1dz2             10.919700     107.963808

                         21       1    1dx2              6.880030      48.105257
                         21       1    1dxy              6.880030      83.320749
                         21       1    1dxz              6.880030      83.320749
                         21       1    1dy2              6.880030      48.105257
                         21       1    1dyz              6.880030      83.320749
                         21       1    1dz2              6.880030      48.105257

                         22       1    1dx2              3.533060      14.985586
                         22       1    1dxy              3.533060      25.955796
                         22       1    1dxz              3.533060      25.955796
                         22       1    1dy2              3.533060      14.985586
                         22       1    1dyz              3.533060      25.955796
                         22       1    1dz2              3.533060      14.985586

                         23       1    1dx2              2.197710       6.529165
                         23       1    1dxy              2.197710      11.308845
                         23       1    1dxz              2.197710      11.308845
                         23       1    1dy2              2.197710       6.529165
                         23       1    1dyz              2.197710      11.308845
                         23       1    1dz2              2.197710       6.529165

                         24       1    1dx2              1.103520       1.955577
                         24       1    1dxy              1.103520       3.387158
                         24       1    1dxz              1.103520       3.387158
                         24       1    1dy2              1.103520       1.955577
                         24       1    1dyz              1.103520       3.387158
                         24       1    1dz2              1.103520       1.955577

                         25       1    1dx2              0.449220       0.405707
                         25       1    1dxy              0.449220       0.702706
                         25       1    1dxz              0.449220       0.702706
                         25       1    1dy2              0.449220       0.405707
                         25       1    1dyz              0.449220       0.702706
                         25       1    1dz2              0.449220       0.405707

                         26       1    1fx3             24.052600    1886.118673
                         26       1    1fx2y            24.052600    4217.489567
                         26       1    1fx2z            24.052600    4217.489567
                         26       1    1fxy2            24.052600    4217.489567
                         26       1    1fxyz            24.052600    7304.906211
                         26       1    1fxz2            24.052600    4217.489567
                         26       1    1fy3             24.052600    1886.118673
                         26       1    1fy2z            24.052600    4217.489567
                         26       1    1fyz2            24.052600    4217.489567
                         26       1    1fz3             24.052600    1886.118673

                         27       1    1fx3             11.324600     346.342597
                         27       1    1fx2y            11.324600     774.445591
                         27       1    1fx2z            11.324600     774.445591
                         27       1    1fxy2            11.324600     774.445591
                         27       1    1fxyz            11.324600    1341.379112
                         27       1    1fxz2            11.324600     774.445591
                         27       1    1fy3             11.324600     346.342597
                         27       1    1fy2z            11.324600     774.445591
                         27       1    1fyz2            11.324600     774.445591
                         27       1    1fz3             11.324600     346.342597

                         28       1    1fx3              6.356670      94.454184
                         28       1    1fx2y             6.356670     211.205975
                         28       1    1fx2z             6.356670     211.205975
                         28       1    1fxy2             6.356670     211.205975
                         28       1    1fxyz             6.356670     365.819480
                         28       1    1fxz2             6.356670     211.205975
                         28       1    1fy3              6.356670      94.454184
                         28       1    1fy2z             6.356670     211.205975
                         28       1    1fyz2             6.356670     211.205975
                         28       1    1fz3              6.356670      94.454184

                         29       1    1fx3              3.729160      28.449801
                         29       1    1fx2y             3.729160      63.615690
                         29       1    1fx2z             3.729160      63.615690
                         29       1    1fxy2             3.729160      63.615690
                         29       1    1fxyz             3.729160     110.185607
                         29       1    1fxz2             3.729160      63.615690
                         29       1    1fy3              3.729160      28.449801
                         29       1    1fy2z             3.729160      63.615690
                         29       1    1fyz2             3.729160      63.615690
                         29       1    1fz3              3.729160      28.449801

                         30       1    1fx3              2.028310       7.227809
                         30       1    1fx2y             2.028310      16.161873
                         30       1    1fx2z             2.028310      16.161873
                         30       1    1fxy2             2.028310      16.161873
                         30       1    1fxyz             2.028310      27.993186
                         30       1    1fxz2             2.028310      16.161873
                         30       1    1fy3              2.028310       7.227809
                         30       1    1fy2z             2.028310      16.161873
                         30       1    1fyz2             2.028310      16.161873
                         30       1    1fz3              2.028310       7.227809

                         31       1    1fx3              1.024880       1.555854
                         31       1    1fx2y             1.024880       3.478995
                         31       1    1fx2z             1.024880       3.478995
                         31       1    1fxy2             1.024880       3.478995
                         31       1    1fxyz             1.024880       6.025795
                         31       1    1fxz2             1.024880       3.478995
                         31       1    1fy3              1.024880       1.555854
                         31       1    1fy2z             1.024880       3.478995
                         31       1    1fyz2             1.024880       3.478995
                         31       1    1fz3              1.024880       1.555854

                         32       1    1gx4             11.760300     977.430815
                         32       1    1gx3y            11.760300    2586.038861
                         32       1    1gx3z            11.760300    2586.038861
                         32       1    1gx2y2           11.760300    3338.561814
                         32       1    1gx2yz           11.760300    5782.558686
                         32       1    1gx2z2           11.760300    3338.561814
                         32       1    1gxy3            11.760300    2586.038861
                         32       1    1gxy2z           11.760300    5782.558686
                         32       1    1gxyz2           11.760300    5782.558686
                         32       1    1gxz3            11.760300    2586.038861
                         32       1    1gy4             11.760300     977.430815
                         32       1    1gy3z            11.760300    2586.038861
                         32       1    1gy2z2           11.760300    3338.561814
                         32       1    1gyz3            11.760300    2586.038861
                         32       1    1gz4             11.760300     977.430815

                         33       1    1gx4              6.187520     167.149899
                         33       1    1gx3y             6.187520     442.237064
                         33       1    1gx3z             6.187520     442.237064
                         33       1    1gx2y2            6.187520     570.925595
                         33       1    1gx2yz            6.187520     988.872138
                         33       1    1gx2z2            6.187520     570.925595
                         33       1    1gxy3             6.187520     442.237064
                         33       1    1gxy2z            6.187520     988.872138
                         33       1    1gxyz2            6.187520     988.872138
                         33       1    1gxz3             6.187520     442.237064
                         33       1    1gy4              6.187520     167.149899
                         33       1    1gy3z             6.187520     442.237064
                         33       1    1gy2z2            6.187520     570.925595
                         33       1    1gyz3             6.187520     442.237064
                         33       1    1gz4              6.187520     167.149899

                         34       1    1gx4              3.483490      34.433050
                         34       1    1gx3y             3.483490      91.101286
                         34       1    1gx3z             3.483490      91.101286
                         34       1    1gx2y2            3.483490     117.611255
                         34       1    1gx2yz            3.483490     203.708668
                         34       1    1gx2z2            3.483490     117.611255
                         34       1    1gxy3             3.483490      91.101286
                         34       1    1gxy2z            3.483490     203.708668
                         34       1    1gxyz2            3.483490     203.708668
                         34       1    1gxz3             3.483490      91.101286
                         34       1    1gy4              3.483490      34.433050
                         34       1    1gy3z             3.483490      91.101286
                         34       1    1gy2z2            3.483490     117.611255
                         34       1    1gyz3             3.483490      91.101286
                         34       1    1gz4              3.483490      34.433050

                         35       1    1gx4              1.719280       4.938995
                         35       1    1gx3y             1.719280      13.067353
                         35       1    1gx3z             1.719280      13.067353
                         35       1    1gx2y2            1.719280      16.869880
                         35       1    1gx2yz            1.719280      29.219490
                         35       1    1gx2z2            1.719280      16.869880
                         35       1    1gxy3             1.719280      13.067353
                         35       1    1gxy2z            1.719280      29.219490
                         35       1    1gxyz2            1.719280      29.219490
                         35       1    1gxz3             1.719280      13.067353
                         35       1    1gy4              1.719280       4.938995
                         35       1    1gy3z             1.719280      13.067353
                         35       1    1gy2z2            1.719280      16.869880
                         35       1    1gyz3             1.719280      13.067353
                         35       1    1gz4              1.719280       4.938995

                         36       1    1hx5              8.998630     936.305233
                         36       1    1hx4y             8.998630    2808.915698
                         36       1    1hx4z             8.998630    2808.915698
                         36       1    1hx3y2            8.998630    4290.689602
                         36       1    1hx3yz            8.998630    7431.692390
                         36       1    1hx3z2            8.998630    4290.689602
                         36       1    1hx2y3            8.998630    4290.689602
                         36       1    1hx2y2z           8.998630    9594.273621
                         36       1    1hx2yz2           8.998630    9594.273621
                         36       1    1hx2z3            8.998630    4290.689602
                         36       1    1hxy4             8.998630    2808.915698
                         36       1    1hxy3z            8.998630    7431.692390
                         36       1    1hxy2z2           8.998630    9594.273621
                         36       1    1hxyz3            8.998630    7431.692390
                         36       1    1hxz4             8.998630    2808.915698
                         36       1    1hy5              8.998630     936.305233
                         36       1    1hy4z             8.998630    2808.915698
                         36       1    1hy3z2            8.998630    4290.689602
                         36       1    1hy2z3            8.998630    4290.689602
                         36       1    1hyz4             8.998630    2808.915698
                         36       1    1hz5              8.998630     936.305233

                         37       1    1hx5              5.230840     160.583653
                         37       1    1hx4y             5.230840     481.750960
                         37       1    1hx4z             5.230840     481.750960
                         37       1    1hx3y2            5.230840     735.886746
                         37       1    1hx3yz            5.230840    1274.593233
                         37       1    1hx3z2            5.230840     735.886746
                         37       1    1hx2y3            5.230840     735.886746
                         37       1    1hx2y2z           5.230840    1645.492788
                         37       1    1hx2yz2           5.230840    1645.492788
                         37       1    1hx2z3            5.230840     735.886746
                         37       1    1hxy4             5.230840     481.750960
                         37       1    1hxy3z            5.230840    1274.593233
                         37       1    1hxy2z2           5.230840    1645.492788
                         37       1    1hxyz3            5.230840    1274.593233
                         37       1    1hxz4             5.230840     481.750960
                         37       1    1hy5              5.230840     160.583653
                         37       1    1hy4z             5.230840     481.750960
                         37       1    1hy3z2            5.230840     735.886746
                         37       1    1hy2z3            5.230840     735.886746
                         37       1    1hyz4             5.230840     481.750960
                         37       1    1hz5              5.230840     160.583653

                         38       1    1hx5              2.734970      19.518211
                         38       1    1hx4y             2.734970      58.554633
                         38       1    1hx4z             2.734970      58.554633
                         38       1    1hx3y2            2.734970      89.443679
                         38       1    1hx3yz            2.734970     154.920997
                         38       1    1hx3z2            2.734970      89.443679
                         38       1    1hx2y3            2.734970      89.443679
                         38       1    1hx2y2z           2.734970     200.002147
                         38       1    1hx2yz2           2.734970     200.002147
                         38       1    1hx2z3            2.734970      89.443679
                         38       1    1hxy4             2.734970      58.554633
                         38       1    1hxy3z            2.734970     154.920997
                         38       1    1hxy2z2           2.734970     200.002147
                         38       1    1hxyz3            2.734970     154.920997
                         38       1    1hxz4             2.734970      58.554633
                         38       1    1hy5              2.734970      19.518211
                         38       1    1hy4z             2.734970      58.554633
                         38       1    1hy3z2            2.734970      89.443679
                         38       1    1hy2z3            2.734970      89.443679
                         38       1    1hyz4             2.734970      58.554633
                         38       1    1hz5              2.734970      19.518211

                         39       1    1ix6              5.335280     238.515925
                         39       1    1ix5y             5.335280     791.067830
                         39       1    1ix5z             5.335280     791.067830
                         39       1    1ix4y2            5.335280    1370.169674
                         39       1    1ix4yz            5.335280    2373.203491
                         39       1    1ix4z2            5.335280    1370.169674
                         39       1    1ix3y3            5.335280    1621.206622
                         39       1    1ix3y2z           5.335280    3625.128213
                         39       1    1ix3yz2           5.335280    3625.128213
                         39       1    1ix3z3            5.335280    1621.206622
                         39       1    1ix2y4            5.335280    1370.169674
                         39       1    1ix2y3z           5.335280    3625.128213
                         39       1    1ix2y2z2          5.335280    4680.020398
                         39       1    1ix2yz3           5.335280    3625.128213
                         39       1    1ix2z4            5.335280    1370.169674
                         39       1    1ixy5             5.335280     791.067830
                         39       1    1ixy4z            5.335280    2373.203491
                         39       1    1ixy3z2           5.335280    3625.128213
                         39       1    1ixy2z3           5.335280    3625.128213
                         39       1    1ixyz4            5.335280    2373.203491
                         39       1    1ixz5             5.335280     791.067830
                         39       1    1iy6              5.335280     238.515925
                         39       1    1iy5z             5.335280     791.067830
                         39       1    1iy4z2            5.335280    1370.169674
                         39       1    1iy3z3            5.335280    1621.206622
                         39       1    1iy2z4            5.335280    1370.169674
                         39       1    1iyz5             5.335280     791.067830
                         39       1    1iz6              5.335280     238.515925

     The atoms of this atomic kind are PAW atoms (GAPW):
       Hard Gaussian function radius:                                      1.512
       Rho0 radius:                                                        1.512
       Maximum GTO radius used for PAW projector construction:            24.566

     GAPW Soft Basis Set                                          def2-QZVP_soft

       Number of orbital shell sets:                                          17
       Number of orbital shells:                                              17
       Number of primitive Cartesian functions:                               11
       Number of Cartesian basis functions:                                   72
       Number of spherical basis functions:                                   57
       Norm type:                                                              2

       Normalised Cartesian orbitals:

                        Set   Shell   Orbital            Exponent    Coefficient

                          1       1    1s         

                          2       1    1s         

                          3       1    1s         

                          4       1    1s         

                          5       1    1s                2.047863       1.220073

                          6       1    1s                0.802146       0.604088

                          7       1    1s                0.305487       0.292856

                          8       1    1px               2.459962       2.645742
                          8       1    1py               2.459962       2.645742
                          8       1    1pz               2.459962       2.645742

                          9       1    1px               1.042200       1.500994
                          9       1    1py               1.042200       1.500994
                          9       1    1pz               1.042200       1.500994

                         10       1    1px               0.429877       0.496159
                         10       1    1py               0.429877       0.496159
                         10       1    1pz               0.429877       0.496159

                         11       1    1px               0.168897       0.154336
                         11       1    1py               0.168897       0.154336
                         11       1    1pz               0.168897       0.154336

                         12       1    1dx2       
                         12       1    1dxy       
                         12       1    1dxz       
                         12       1    1dy2       
                         12       1    1dyz       
                         12       1    1dz2       

                         13       1    1dx2              2.213000       6.608866
                         13       1    1dxy              2.213000      11.446891
                         13       1    1dxz              2.213000      11.446891
                         13       1    1dy2              2.213000       6.608866
                         13       1    1dyz              2.213000      11.446891
                         13       1    1dz2              2.213000       6.608866

                         14       1    1dx2              0.747000       0.987917
                         14       1    1dxy              0.747000       1.711123
                         14       1    1dxz              0.747000       1.711123
                         14       1    1dy2              0.747000       0.987917
                         14       1    1dyz              0.747000       1.711123
                         14       1    1dz2              0.747000       0.987917

                         15       1    1fx3       
                         15       1    1fx2y      
                         15       1    1fx2z      
                         15       1    1fxy2      
                         15       1    1fxyz      
                         15       1    1fxz2      
                         15       1    1fy3       
                         15       1    1fy2z      
                         15       1    1fyz2      
                         15       1    1fz3       

                         16       1    1fx3              1.524000       3.799012
                         16       1    1fx2y             1.524000       8.494848
                         16       1    1fx2z             1.524000       8.494848
                         16       1    1fxy2             1.524000       8.494848
                         16       1    1fxyz             1.524000      14.713509
                         16       1    1fxz2             1.524000       8.494848
                         16       1    1fy3              1.524000       3.799012
                         16       1    1fy2z             1.524000       8.494848
                         16       1    1fyz2             1.524000       8.494848
                         16       1    1fz3              1.524000       3.799012

                         17       1    1gx4              2.983000      22.476665
                         17       1    1gx3y             2.983000      59.467666
                         17       1    1gx3z             2.983000      59.467666
                         17       1    1gx2y2            2.983000      76.772426
                         17       1    1gx2yz            2.983000     132.973743
                         17       1    1gx2z2            2.983000      76.772426
                         17       1    1gxy3             2.983000      59.467666
                         17       1    1gxy2z            2.983000     132.973743
                         17       1    1gxyz2            2.983000     132.973743
                         17       1    1gxz3             2.983000      59.467666
                         17       1    1gy4              2.983000      22.476665
                         17       1    1gy3z             2.983000      59.467666
                         17       1    1gy2z2            2.983000      76.772426
                         17       1    1gyz3             2.983000      59.467666
                         17       1    1gz4              2.983000      22.476665

     AE Potential information for                                            ALL

       Description:                                       All-electron potential
                                          Krack, Parrinello, PCCP 2, 2105 (2000)

       Gaussian exponent of the core charge distribution:              13.850416
       Electronic configuration (s p d ...):                           4   6   0


 MOLECULE KIND INFORMATION


 All atoms are their own molecule, skipping detailed information


 TOTAL NUMBERS AND MAXIMUM NUMBERS

  Total number of            - Atomic kinds:                                   1
                             - Atoms:                                          1
                             - Shell sets:                                    17
                             - Shells:                                        17
                             - Primitive Cartesian functions:                 30
                             - Cartesian basis functions:                     72
                             - Spherical basis functions:                     57

  Maximum angular momentum of the orbital basis functions:                     4


 MODULE QUICKSTEP:  ATOMIC COORDINATES IN angstrom

  Atom  Kind  Element       X           Y           Z          Z(eff)       Mass

       1     1 Ne  10    8.000000    8.000000    8.000000     10.00      20.1797




 SCF PARAMETERS         Density guess:                                   RESTART
                        --------------------------------------------------------
                        max_scf:                                             200
                        max_scf_history:                                       0
                        max_diis:                                              4
                        --------------------------------------------------------
                        eps_scf:                                        1.00E-06
                        eps_scf_history:                                0.00E+00
                        eps_diis:                                       1.00E-01
                        eps_eigval:                                     1.00E-05
                        --------------------------------------------------------
                        level_shift [a.u.]:                                 0.00
                        --------------------------------------------------------
                        Mixing method:                           DIRECT_P_MIXING
                        --------------------------------------------------------
                        No outer SCF

 PW_GRID| Information for grid number                                          1
 PW_GRID| Grid distributed over                                    24 processors
 PW_GRID| Real space group dimensions                                    24    1
 PW_GRID| the grid is blocked:                                                NO
 PW_GRID| Cutoff [a.u.]                                                    400.0
 PW_GRID| spherical cutoff:                                                   NO
 PW_GRID|   Bounds   1           -144     143                Points:         288
 PW_GRID|   Bounds   2           -144     143                Points:         288
 PW_GRID|   Bounds   3           -144     143                Points:         288
 PW_GRID| Volume element (a.u.^3)  0.1157E-02     Volume (a.u.^3)     27641.1785
 PW_GRID| Grid span                                                    FULLSPACE
 PW_GRID|   Distribution                         Average         Max         Min
 PW_GRID|   G-Vectors                           995328.0      995328      995328
 PW_GRID|   G-Rays                                3456.0        3456        3456
 PW_GRID|   Real Space Points                   995328.0      995328      995328

 PW_GRID| Information for grid number                                          2
 PW_GRID| Grid distributed over                                    24 processors
 PW_GRID| Real space group dimensions                                    24    1
 PW_GRID| the grid is blocked:                                                NO
 PW_GRID| Cutoff [a.u.]                                                    200.0
 PW_GRID| spherical cutoff:                                                   NO
 PW_GRID|   Bounds   1           -100      99                Points:         200
 PW_GRID|   Bounds   2           -100      99                Points:         200
 PW_GRID|   Bounds   3           -100      99                Points:         200
 PW_GRID| Volume element (a.u.^3)  0.3455E-02     Volume (a.u.^3)     27641.1785
 PW_GRID| Grid span                                                    FULLSPACE
 PW_GRID|   Distribution                         Average         Max         Min
 PW_GRID|   G-Vectors                           333333.3      333600      333200
 PW_GRID|   G-Rays                                1666.7        1668        1666
 PW_GRID|   Real Space Points                   333333.3      360000      320000

 PW_GRID| Information for grid number                                          3
 PW_GRID| Grid distributed over                                    24 processors
 PW_GRID| Real space group dimensions                                    24    1
 PW_GRID| the grid is blocked:                                                NO
 PW_GRID| Cutoff [a.u.]                                                     66.7
 PW_GRID| spherical cutoff:                                                   NO
 PW_GRID|   Bounds   1            -60      59                Points:         120
 PW_GRID|   Bounds   2            -60      59                Points:         120
 PW_GRID|   Bounds   3            -60      59                Points:         120
 PW_GRID| Volume element (a.u.^3)  0.1600E-01     Volume (a.u.^3)     27641.1785
 PW_GRID| Grid span                                                    FULLSPACE
 PW_GRID|   Distribution                         Average         Max         Min
 PW_GRID|   G-Vectors                            72000.0       72360       71760
 PW_GRID|   G-Rays                                 600.0         603         598
 PW_GRID|   Real Space Points                    72000.0       72000       72000

 PW_GRID| Information for grid number                                          4
 PW_GRID| Grid distributed over                                    24 processors
 PW_GRID| Real space group dimensions                                    24    1
 PW_GRID| the grid is blocked:                                                NO
 PW_GRID| Cutoff [a.u.]                                                     22.2
 PW_GRID| spherical cutoff:                                                   NO
 PW_GRID|   Bounds   1            -36      35                Points:          72
 PW_GRID|   Bounds   2            -36      35                Points:          72
 PW_GRID|   Bounds   3            -36      35                Points:          72
 PW_GRID| Volume element (a.u.^3)  0.7406E-01     Volume (a.u.^3)     27641.1785
 PW_GRID| Grid span                                                    FULLSPACE
 PW_GRID|   Distribution                         Average         Max         Min
 PW_GRID|   G-Vectors                            15552.0       15768       15408
 PW_GRID|   G-Rays                                 216.0         219         214
 PW_GRID|   Real Space Points                    15552.0       15552       15552

 PW_GRID| Information for grid number                                          5
 PW_GRID| Grid distributed over                                    24 processors
 PW_GRID| Real space group dimensions                                    24    1
 PW_GRID| the grid is blocked:                                                NO
 PW_GRID| Cutoff [a.u.]                                                      7.4
 PW_GRID| spherical cutoff:                                                   NO
 PW_GRID|   Bounds   1            -20      19                Points:          40
 PW_GRID|   Bounds   2            -20      19                Points:          40
 PW_GRID|   Bounds   3            -20      19                Points:          40
 PW_GRID| Volume element (a.u.^3)  0.4319         Volume (a.u.^3)     27641.1785
 PW_GRID| Grid span                                                    FULLSPACE
 PW_GRID|   Distribution                         Average         Max         Min
 PW_GRID|   G-Vectors                             2666.7        2720        2640
 PW_GRID|   G-Rays                                  66.7          68          66
 PW_GRID|   Real Space Points                     2666.7        3200        1600

 POISSON| Solver                                          Martyna-Tuckerman (MT)
 POISSON| MT| Alpha                                                        7.000
 POISSON| MT| Relative cutoff                                                2.0
 POISSON| Periodicity                                                       NONE

 RS_GRID| Information for grid number                                          2
 RS_GRID|   Bounds   1           -100      99                Points:         200
 RS_GRID|   Bounds   2           -100      99                Points:         200
 RS_GRID|   Bounds   3           -100      99                Points:         200
 RS_GRID| Real space distribution over                                  4 groups
 RS_GRID| Real space distribution along direction                              2
 RS_GRID| Border size                                                         23
 RS_GRID| Real space distribution over                                  6 groups
 RS_GRID| Real space distribution along direction                              3
 RS_GRID| Border size                                                         23
 RS_GRID|   Distribution                         Average         Max         Min
 RS_GRID|   Planes                                  96.0          96          96
 RS_GRID|   Distribution                         Average         Max         Min
 RS_GRID|   Planes                                  79.3          80          79

 RS_GRID| Information for grid number                                          3
 RS_GRID|   Bounds   1            -60      59                Points:         120
 RS_GRID|   Bounds   2            -60      59                Points:         120
 RS_GRID|   Bounds   3            -60      59                Points:         120
 RS_GRID| Real space distribution over                                  4 groups
 RS_GRID| Real space distribution along direction                              2
 RS_GRID| Border size                                                         25
 RS_GRID| Real space distribution over                                  6 groups
 RS_GRID| Real space distribution along direction                              3
 RS_GRID| Border size                                                         25
 RS_GRID|   Distribution                         Average         Max         Min
 RS_GRID|   Planes                                  80.0          80          80
 RS_GRID|   Distribution                         Average         Max         Min
 RS_GRID|   Planes                                  70.0          70          70

 RS_GRID| Information for grid number                                          4
 RS_GRID|   Bounds   1            -36      35                Points:          72
 RS_GRID|   Bounds   2            -36      35                Points:          72
 RS_GRID|   Bounds   3            -36      35                Points:          72
 RS_GRID| Real space fully replicated
 RS_GRID| Group size                                                           1

 RS_GRID| Information for grid number                                          5
 RS_GRID|   Bounds   1            -20      19                Points:          40
 RS_GRID|   Bounds   2            -20      19                Points:          40
 RS_GRID|   Bounds   3            -20      19                Points:          40
 RS_GRID| Real space fully replicated
 RS_GRID| Group size                                                           1
 
 RI-RPA| using GPW style
 

  HFX_INFO| Replica ID:                                                        1
  HFX_INFO| EPS_SCHWARZ:                                                 1.0E-17
  HFX_INFO| EPS_SCHWARZ_FORCES                                           1.0E-06
  HFX_INFO| EPS_STORAGE_SCALING:                                         1.0E+00
  HFX_INFO| NBINS:                                                            64
  HFX_INFO| BLOCK_SIZE:                                                        1
  HFX_INFO| FRACTION:                                               1.0000000000
  HFX_INFO| Interaction Potential:                                       COULOMB
  HFX_INFO| Number of periodic shells considered:                           NONE
  HFX_INFO| Number of periodic cells considered:                            NONE


 Number of electrons:                                                         10
 Number of occupied orbitals:                                                  5
 Number of molecular orbitals:                                                 5

 Number of orbital functions:                                                 57
 Number of independent orbital functions:                                     57

 Extrapolation method: initial_guess


 SCF WAVEFUNCTION OPTIMIZATION

  Step     Update method      Time    Convergence         Total energy    Change
  ------------------------------------------------------------------------------
     1 P_Mix/Diag. 0.40E+00    2.4     3.3170E-10      -128.8653917798 -1.29E+02

  *** SCF run converged in     1 steps ***


  Electronic density on regular grids:         -6.8549395852        3.1450604148
  Core density on regular grids:               10.0000000000        0.0000000000
  Hard and soft densities (Lebedev):           -9.9999999968       -6.8549395859
  Total Rho_soft + Rho1_hard - Rho1_soft       -9.9999999961
  Total charge density (r-space):               0.0000000039
  Total Rho_soft + Rho0_soft (g-space):        -0.0000000618

  Overlap energy of the core charge distribution:               0.00000000000000
  Self energy of the core charge distribution:               -148.47094303888323
  Core Hamiltonian energy:                                      0.49299351029852
  Hartree energy:                                              13.56891434470919
  Exchange-correlation energy:                                 -4.49936397186279

  GAPW| Exc from hard and soft atomic rho1:                    -7.87423691817473
  GAPW| local Eh = 1 center integrals:                         17.91724429406566

  Total energy:                                              -128.86539177984741

 !-----------------------------------------------------------------------------!
                     Mulliken Population Analysis

 #  Atom  Element  Kind  Atomic population                           Net charge
       1     Ne       1         10.000000                             -0.000000
 # Total charge                             10.000000                 -0.000000

 !-----------------------------------------------------------------------------!

 !-----------------------------------------------------------------------------!
                           Hirshfeld Charges

  #Atom  Element  Kind  Ref Charge     Population                    Net charge
      1       Ne     1      10.000          9.999                         0.001

  Total Charge                                                            0.001
 !-----------------------------------------------------------------------------!


 RI-RPA section
 --------------

  Used number of processes per group:                                          1
  Maximum allowed memory usage per MPI processes:                     200.00 MiB

  HFX_MEM_INFO| Est. max. program size before HFX [MiB]:                     385
  HFX_MEM_INFO| Number of cart. primitive ERI's calculated:             81450625
  HFX_MEM_INFO| Number of sph. ERI's calculated:                        10556001
  HFX_MEM_INFO| Number of sph. ERI's stored in-core:                    10556001
  HFX_MEM_INFO| Number of sph. ERI's stored on disk:                           0
  HFX_MEM_INFO| Number of sph. ERI's calculated on the fly:                    0
  HFX_MEM_INFO| Total memory consumption ERI's RAM [MiB]:                     61
  HFX_MEM_INFO| Whereof max-vals [MiB]:                                        1
  HFX_MEM_INFO| Total compression factor ERI's RAM:                         1.34
  HFX_MEM_INFO| Total memory consumption ERI's disk [MiB]:                     0
  HFX_MEM_INFO| Total compression factor ERI's disk:                        0.00
  HFX_MEM_INFO| Size of density/Fock matrix [MiB]:                             0
  HFX_MEM_INFO| Size of buffers [MiB]:                                         0
  HFX_MEM_INFO| Est. max. program size after HFX  [MiB]:                     430

  GPW_INFO| Density cutoff [a.u.]:                                         150.0
  GPW_INFO| Relative density cutoff [a.u.]:                                 25.0
  RI_INFO| Cholesky decomposition group size:                                 24
  RI_INFO| Number of groups for auxiliary basis functions                     24
  RI_INFO| Occupied  basis set size:                                           5
  RI_INFO| Virtual   basis set size:                                          52
  RI_INFO| Auxiliary basis set size:                                         193
  RI_INFO| Total memory for (ia|K) integrals:                           0.38 MiB
  RI_INFO| Group size for frequency integration:                              24
  INTEG_INFO| MINIMAX quadrature
  INTEG_INFO| Number of integration points:                                   14
  INTEG_INFO| Number of integration points per RPA group:                     14
  MATRIX_INFO| Number row processes:                                           4
  MATRIX_INFO| Number column processes:                                        6
  MATRIX_INFO| Row block size:                                                32
  MATRIX_INFO| Column block size:                                             16
 Emin =  0.78321409985019752      Emax =   367.69391368132273      Range =   469.46794465478877     
  INTEG_INFO| Range for the minimax approximation:                      469.4679
  INTEG_INFO| Minimax parameters:                    Weights           Abscissas
                                                1.7871604310        0.2195841709
                                                2.1723622057        0.7057975102
                                                3.0535043408        1.3467176552
                                                4.6825469923        2.2942840687
                                                7.5337480980        3.7888039354
                                               12.4707770948        6.2330908206
                                               21.0699828787       10.3258366782
                                               36.2498549000       17.3096455255
                                               63.5361089993       29.4459182543
                                              113.7642936904       50.9598239174
                                              209.6823067355       90.0592254554
                                              407.4985485774      164.0126232987
                                              911.1806915719      317.5014933654
                                             3366.8875423705      752.7186975519
  INTEG_INFO| Range for the minimax approximation:                      469.4679
  INTEG_INFO| Gap:                                                        0.7832
  INTEG_INFO| Minimax parameters of the time grid:   Weights           Abscissas
                                                0.0014963450        0.0005775976
                                                0.0037874471        0.0031727598
                                                0.0069919117        0.0084516362
                                                0.0121518060        0.0178011729
                                                0.0209572924        0.0339612216
                                                0.0359695658        0.0617698644
                                                0.0611245957        0.1092569958
                                                0.1025899522        0.1894176349
                                                0.1700572033        0.3230438552
                                                0.2788386315        0.5432025770
                                                0.4538618683        0.9026072920
                                                0.7395604606        1.4873276057
                                                1.2348099681        2.4497051926
                                                2.3047808749        4.1335660714
 
 tau scaled:   7.3747095323266419E-004   4.0509482394249282E-003   1.0790965366758507E-002   2.2728361091785075E-002   4.3361351191320521E-002   7.8867150699762009E-002  0.13949824931240040       0.24184655885638034       0.41245919250782498       0.69355566643909772        1.1524400444257117        1.8990051455215569        3.1277593100907950        5.2776961908582258     
 
 
 omega scaled:  0.17198141872851869       0.55279056164259877        1.0547682560747120        1.7969156316405002        2.9674446637808023        4.8818446163426179        8.0873408791298775        13.557158438978993        23.062458359800505        39.912452618010754        70.535655198236384        128.45699912095512        248.67164632727628        589.53989714350519     
 
 
 weights_cos_tf_t_to_w
   3.8311727717469605E-003   3.7943642576842799E-003   3.8566067069114897E-003   3.7834772596967831E-003   3.8569162733869946E-003   3.7882201732738130E-003   3.8511018832326368E-003   3.7928601988506962E-003   3.8489557210799165E-003   3.7913862291849175E-003   3.8558231944584996E-003   3.7788177287547122E-003   3.8868329968693386E-003   3.5670702996003453E-003   9.6320667404927850E-003   9.7754938386194236E-003   9.5329204122058721E-003   9.8180228907989910E-003   9.5315233193366111E-003   9.7998543260713108E-003   9.5536503251780341E-003   9.7827527044970861E-003   9.5599768020428778E-003   9.7934621775152188E-003   9.5182770280844153E-003   9.9036258798264713E-003   8.8819908130183187E-003   5.8902258835393569E-003   1.7947208291478344E-002   1.7609888923620927E-002   1.8180640827743205E-002   1.7509195461964552E-002   1.8185148915559453E-002   1.7549853690666122E-002   1.8136803196936304E-002   1.7582723905941806E-002   1.8138954415633606E-002   1.7508458125897075E-002   1.8443908374741101E-002   1.3703639135459701E-002   1.4917442954038320E-002   1.3501235933774591E-003   3.0845036094619787E-002   3.1520232258546554E-002   3.0376631168851448E-002   3.1724874593267581E-002   3.0361809832000632E-002   3.1653809416453980E-002   3.0438780711276609E-002   3.1631981498090912E-002   3.0311665832736884E-002   3.2321383024267271E-002   7.2857070870606291E-002   2.7198962889941992E-002   7.7255413657795228E-003  -5.8055007351336715E-004   5.3857903038757204E-002   5.2612618745889406E-002   5.4726244154552350E-002   5.2222973240724675E-002   5.4777618712781348E-002   5.2307879436683885E-002   5.4735451580020425E-002   5.2075159610789006E-002   5.6228634856802837E-002   6.8305406676791344E-002   4.7542592410261833E-002   2.0395392974335874E-002   9.0377544581168850E-003   1.7636660710458154E-004   9.1252915495152159E-002   9.3437557225039589E-002   8.9713530004541645E-002   9.4166968215188510E-002   8.9526266962999132E-002   9.4229434974020546E-002   8.9026033420391726E-002   9.7417770010226043E-002  0.10857119339967279        8.2121203528224634E-002   4.1847556542940076E-002   6.6192891395129138E-003   1.0025592277336460E-003   1.1210494795619481E-004  0.15710091799927353       0.15338176443512569       0.15977958436881179       0.15196344143557960       0.16052068800688007       0.15068796499673023       0.16739295311378302       0.17872907433862020       0.14003345725438035        7.8889290230305484E-002   1.1792761716459661E-002   3.1602852636209672E-003   3.9720269754622042E-004   7.4555741606897345E-005  0.26028230532068836       0.26652824542979980       0.25556191660588340       0.26965981333202055       0.25203611517939117       0.28464022220785190       0.29475864661102302       0.23542524193473022       0.14255315312513281        2.1784838752055627E-002  -1.8602425671515040E-002  -1.0810051509411828E-003  -3.0162784226220725E-004   1.4021668270986062E-004  0.43705548413400985       0.42650262836334890       0.44597440990743836       0.41721926853234603       0.47817156219559087       0.48338027730734767       0.39036302800182704       0.25026219829405544        4.0123974911156511E-002  -1.0929869036078033E-002   3.1815814444663198E-003  -7.6814902120623174E-004   4.7676210798998212E-004  -1.3797408046829418E-004  0.70732905625555664       0.72590813346709016       0.68660224495402766       0.78911323676095246       0.78741765214109072       0.63964685524303955       0.42915949403522785        7.3311377959186019E-002  -1.5588030767670971E-002   5.0736295259751398E-003   6.6880634692501363E-003  -1.2857499551799097E-003  -1.9056737905543946E-004  -4.2004705039805644E-005   1.1672635830426352        1.1302062680366025        1.2652937523835837        1.2784287935754839        1.0402939096486883       0.72121072800339237       0.13194189506133075       -2.7495746549217465E-002  -6.2031204748345656E-002  -6.6809801154041745E-003  -1.2752701824664560E-003  -5.0253511929458216E-004   2.0693795493102006E-004   4.9729528785817119E-005   1.8721244455373114        1.9831336090953231        2.0993053088313758        1.6956008485672245        1.1904498255554188       0.23093333480725037       -5.2272801803886403E-002  -1.7139330967522039E-002   5.3081519709709960E-003  -2.4288894906944031E-003  -2.3856418545074752E-003  -9.0846184391857147E-004   2.6040039759008562E-004  -7.2474781375676060E-005   3.1964189617301506        3.9613223327778648        2.8341186701001173        1.9272259309426347       0.38225043938526654       -9.4099987048486697E-002  -2.5261541867467714E-002  -1.1731814096359137        4.0871863402942143E-003   2.7941688753115868E-003  -1.1526120302682182E-003   3.9147933885953589E-004  -5.4791197386385858E-004  -2.8850302860971006E-005   5.6256299217496784        5.1963698720754214        2.9324671389730108       0.56642731528351353      -0.13931601152968173       -5.3946831536499998E-002   6.2965628296831569E-002   9.7365675422537209E-003  -5.0511413231491198E-003   1.7329455087075950E-003   6.2730489812800397E-002  -4.2902831197454757E-004   1.7338764862038781E-004  -8.2573136651126338E-005
 
 weights_cos_tf_w_to_t
[...]
  RPA_IM_TIME_INFO| Number of periodic images T for Chi_PQ^T(it):              1
  RPA_IM_TIME_INFO| Number of periodic images T for Chi_PQ^T(it):              1
  RPA_IM_TIME_INFO| Number of periodic images T for Chi_PQ^T(it):              1
  RPA_IM_TIME_INFO| Number of periodic images T for Chi_PQ^T(it):              1
  RPA_IM_TIME_INFO| Number of periodic images T for Chi_PQ^T(it):              1
  RPA_IM_TIME_INFO| Number of periodic images T for Chi_PQ^T(it):              1
  
  GW quasiparticle energies
  -------------------------
   
  The GW quasiparticle energies are calculated according to: 
  E_GW = E_SCF + Z * ( Sigc(E_SCF) + Sigx - vxc )
   
  The energy unit of the following table is eV.  Sigc_fit is a very conservative
  estimate of the statistical error of the fitting.
   
            MO      E_SCF       Sigc   Sigc_fit   Sigx-vxc          Z       E_GW
     1 ( occ )   -829.739     -3.888      0.000    -62.661      1.000   -896.288
     2 ( occ )    -36.246      7.742      0.000    -16.903      1.000    -45.408
     3 ( occ )    -13.314      3.528      0.000    -10.455      1.000    -20.241
     4 ( occ )    -13.314      3.528      0.000    -10.455      1.000    -20.241
     5 ( occ )    -13.314      3.528      0.000    -10.455      1.000    -20.241
     6 ( vir )      7.998     -0.216      0.000      3.860      1.000     11.642
     7 ( vir )      7.998     -0.216      0.000      3.860      1.000     11.642
     8 ( vir )      7.998     -0.216      0.000      3.860      1.000     11.642
     9 ( vir )     15.028     -1.283      0.000      6.405      1.000     20.150
    10 ( vir )     41.995     -2.458      0.000      8.515      1.000     48.053
    11 ( vir )     41.995     -2.458      0.000      8.515      1.000     48.053
    12 ( vir )     41.995     -2.458      0.000      8.515      1.000     48.053
    13 ( vir )     45.116     -1.769      0.000      8.735      1.000     52.082
    14 ( vir )     45.116     -1.769      0.000      8.735      1.000     52.082
    15 ( vir )     45.116     -1.769      0.000      8.735      1.000     52.082
   
  GW HOMO-LUMO gap (eV)                                                    31.88
  

  Total RI-RPA Time=                                                    6.657051
  RI-RPA energy  =                                             -0.47475633290054

  Total EXX Time=                                                       9.280896
  EXX energy  =                                               -12.04552912257438

 ENERGY| Total FORCE_EVAL ( QS ) energy (a.u.):             -129.012076335227192


 -------------------------------------------------------------------------------
 -                                                                             -
 -                                DBCSR STATISTICS                             -
 -                                                                             -
 -------------------------------------------------------------------------------
 COUNTER                                    TOTAL       BLAS       SMM       ACC
 flops    57 x     5 x    57                32490     100.0%      0.0%      0.0%
 flops    57 x    57 x     5                64980     100.0%      0.0%      0.0%
 flops    57 x    57 x    57               740772     100.0%      0.0%      0.0%
 flops    57 x   513 x    57             96670746     100.0%      0.0%      0.0%
 flops   193 x   193 x   193            201293596     100.0%      0.0%      0.0%
 flops   193 x   193 x   135            422403660     100.0%      0.0%      0.0%
 flops   193 x   193 x   150            469337400     100.0%      0.0%      0.0%
 flops   193 x    57 x    57            526727880     100.0%      0.0%      0.0%
 flops   193 x    57 x   193            891741060     100.0%      0.0%      0.0%
 flops   193 x   193 x   126           1182730248     100.0%      0.0%      0.0%
 flops   193 x   193 x   140           1314144720     100.0%      0.0%      0.0%
 flops    57 x   456 x    57           1976379696     100.0%      0.0%      0.0%
 flops inhomo. stacks                           0       0.0%      0.0%      0.0%
 flops total                         7.082267E+09     100.0%      0.0%      0.0%
 flops max/rank                      1.852546E+09     100.0%      0.0%      0.0%
 matmuls inhomo. stacks                         0       0.0%      0.0%      0.0%
 matmuls total                               1681     100.0%      0.0%      0.0%
 number of processed stacks                  1681     100.0%      0.0%      0.0%
 average stack size                                     1.0       0.0       0.0
 marketing flops                     7.081711E+09
 -------------------------------------------------------------------------------
 # multiplications                            692
 max memory usage/rank             456.474624E+06
 # max total images/rank                        3
 # max 3D layers                                1
 # MPI messages exchanged                  295944
 MPI messages size (bytes):
  total size                       619.867648E+06
  min size                           0.000000E+00
  max size                         297.992000E+03
  average size                       2.094544E+03
 MPI breakdown and total messages size (bytes):
             size <=      128              290752                        0
       128 < size <=     8192                  19                    43320
      8192 < size <=    32768                1281                 33295752
     32768 < size <=   131072                2730                240261840
    131072 < size <=  4194304                1162                346266704
   4194304 < size <= 16777216                   0                        0
  16777216 < size                               0                        0
 -------------------------------------------------------------------------------

 *** WARNING in dbcsr_mm.F:278 :: Using a non-square number of MPI ranks ***
 *** might lead to poor performance. Used ranks: 24 Suggested: 25 49     ***

 -------------------------------------------------------------------------------
 -                                                                             -
 -                      DBCSR MESSAGE PASSING PERFORMANCE                      -
 -                                                                             -
 -------------------------------------------------------------------------------

 ROUTINE             CALLS      AVE VOLUME [Bytes]
 MP_Group               26
 MP_Bcast               13                     12.
 MP_Allreduce         3908                      8.
 MP_Alltoall          2176                  15828.
 MP_Wait             37376
 MP_ISend            27430                   5067.
 MP_IRecv            27430                     56.
 MP_Memory           52476
 -------------------------------------------------------------------------------


 MEMORY| Estimated peak process memory [MiB]                                 436

 -------------------------------------------------------------------------------
 ----                             MULTIGRID INFO                            ----
 -------------------------------------------------------------------------------
 count for grid        1:          85043          cutoff [a.u.]          200.00
 count for grid        2:           6389          cutoff [a.u.]           66.67
 count for grid        3:           1641          cutoff [a.u.]           22.22
 count for grid        4:             96          cutoff [a.u.]            7.41
 total gridlevel count  :          93169

 -------------------------------------------------------------------------------
 -                                                                             -
 -                         MESSAGE PASSING PERFORMANCE                         -
 -                                                                             -
 -------------------------------------------------------------------------------

 ROUTINE             CALLS      AVE VOLUME [Bytes]
 MP_Group                5
 MP_Bcast              109                2490676.
 MP_Allreduce          336                  14630.
 MP_Sync                72
 MP_Alltoall           123                3770409.
 MP_ISendRecv          276                  54508.
 MP_Wait               940
 MP_comm_split          10
 MP_ISend             3188                  53652.
 MP_IRecv             2546                 100207.
 MP_Recv                 4                    456.
 -------------------------------------------------------------------------------


 -------------------------------------------------------------------------------
 -                                                                             -
 -                           R E F E R E N C E S                               -
 -                                                                             -
 -------------------------------------------------------------------------------
 
 CP2K version 7.0 (Development Version), the CP2K developers group (2018).
 CP2K is freely available from https://www.cp2k.org/ .

 Schuett, Ole; Messmer, Peter; Hutter, Juerg; VandeVondele, Joost. 
 Electronic Structure Calculations on Graphics Processing Units, John Wiley & Sons, Ltd, 173-190 (2016). 
 GPU-Accelerated Sparse Matrix-Matrix Multiplication for Linear Scaling Density Functional Theory.
 https://dx.doi.org/10.1002/9781118670712.ch8


 Del Ben, M; Schuett, O; Wentz, T; Messmer, P; Hutter, J;
 VandeVondele, J. 
 COMPUTER PHYSICS COMMUNICATIONS, 187, 120-129 (2015). 
 Enabling simulation at the fifth rung of DFT: Large scale RPA
 calculations with excellent time to solution.
 https://dx.doi.org/10.1016/j.cpc.2014.10.021


 Borstnik, U; VandeVondele, J; Weber, V; Hutter, J. 
 PARALLEL COMPUTING, 40 (5-6), 47-58 (2014). 
 Sparse matrix multiplication: The distributed block-compressed sparse
 row library.
 https://dx.doi.org/10.1016/j.parco.2014.03.012


 Hutter, J; Iannuzzi, M; Schiffmann, F; VandeVondele, J. 
 WILEY INTERDISCIPLINARY REVIEWS-COMPUTATIONAL MOLECULAR SCIENCE, 4 (1), 15-25 (2014). 
 CP2K: atomistic simulations of condensed matter systems.
 https://dx.doi.org/10.1002/wcms.1159


 Del Ben, M; Hutter, J; VandeVondele, J. 
 JOURNAL OF CHEMICAL THEORY AND COMPUTATION, 9 (6), 2654-2671 (2013). 
 Electron Correlation in the Condensed Phase from a Resolution of
 Identity Approach Based on the Gaussian and Plane Waves Scheme.
 https://dx.doi.org/10.1021/ct4002202


 Del Ben, M; Hutter, J; VandeVondele, J. 
 JOURNAL OF CHEMICAL THEORY AND COMPUTATION, 8 (11), 4177-4188 (2012). 
 Second-Order Moller-Plesset Perturbation Theory in the Condensed Phase:
 An Efficient and Massively Parallel Gaussian and Plane Waves Approach.
 https://dx.doi.org/10.1021/ct300531w


 Guidon, M; Hutter, J; VandeVondele, J. 
 JOURNAL OF CHEMICAL THEORY AND COMPUTATION, 5 (11), 3010-3021 (2009). 
 Robust Periodic Hartree-Fock Exchange for Large-Scale Simulations Using
 Gaussian Basis Sets.
 https://dx.doi.org/10.1021/ct900494g


 Guidon, M; Schiffmann, F; Hutter, J; VandeVondele, J. 
 JOURNAL OF CHEMICAL PHYSICS, 128 (21), 214104 (2008). 
 Ab initio molecular dynamics using hybrid density functionals.
 https://dx.doi.org/10.1063/1.2931945


 Frigo, M; Johnson, SG. 
 PROCEEDINGS OF THE IEEE, 93 (2), 216-231 (2005). 
 The design and implementation of FFTW3.
 https://dx.doi.org/10.1109/JPROC.2004.840301


 Lippert, G; Hutter, J; Parrinello, M. 
 THEORETICAL CHEMISTRY ACCOUNTS, 103 (2), 124-140 (1999). 
 The Gaussian and augmented-plane-wave density functional method for ab
 initio molecular dynamics simulations.
 https://dx.doi.org/10.1007/s002140050523


 Krack, M; Parrinello, M. 
 PHYSICAL CHEMISTRY CHEMICAL PHYSICS, 2 (10), 2105-2112 (2000). 
 All-electron ab-initio molecular dynamics.
 https://dx.doi.org/10.1039/b001167n


 Martyna, GJ; Tuckerman, ME. 
 JOURNAL OF CHEMICAL PHYSICS, 110 (6), 2810-2821 (1999). 
 A reciprocal space based method for treating long range interactions in
 ab initio and force-field-based calculations in clusters.
 https://dx.doi.org/10.1063/1.477923


 Perdew, JP; Burke, K; Ernzerhof, M. 
 PHYSICAL REVIEW LETTERS, 77 (18), 3865-3868 (1996). 
 Generalized gradient approximation made simple.
 https://dx.doi.org/10.1103/PhysRevLett.77.3865


 -------------------------------------------------------------------------------
 -                                                                             -
 -                                T I M I N G                                  -
 -                                                                             -
 -------------------------------------------------------------------------------
 SUBROUTINE                       CALLS  ASD         SELF TIME        TOTAL TIME
                                MAXIMUM       AVERAGE  MAXIMUM  AVERAGE  MAXIMUM
 CP2K                                 1  1.0    0.026    0.039   20.644   20.646
 qs_energies                          1  2.0    0.000    0.000   19.360   19.361
 mp2_main                             1  3.0    0.000    0.000   15.948   15.950
 compute_vec_Sigma_x_minus_vxc_       1  4.0    0.000    0.000    9.281    9.281
 integrate_four_center                1  5.0    0.003    0.004    8.003    8.004
 mp2_gpw_main                         1  4.0    0.000    0.000    6.657    6.657
 rpa_ri_compute_en                    1  5.0    0.000    0.000    6.243    6.243
 rpa_num_int                          1  6.0    0.000    0.002    6.240    6.241
 qs_ks_build_kohn_sham_matrix         2  6.0    0.001    0.001    3.618    3.618
 calc_screening_functions             1  6.0    2.362    2.543    3.314    3.615
 mp_sync                             72  8.7    2.606    2.740    2.606    2.740
 integrate_four_center_main           1  6.0    0.000    0.000    0.112    2.693
 integrate_four_center_bin          128  7.0    0.112    2.693    0.112    2.693
 scf_env_do_scf                       1  3.0    0.000    0.000    2.693    2.693
 scf_env_do_scf_inner_loop            1  4.0    0.000    0.000    2.692    2.693
 mp_sum_dm                           12  7.8    1.028    2.361    1.028    2.361
 qs_ks_update_qs_env                  1  5.0    0.000    0.000    2.345    2.345
 rebuild_ks_matrix                    1  6.0    0.000    0.000    2.345    2.345
 pw_transfer                         39  8.7    0.003    0.004    2.129    2.205
 fft_wrap_pw1pw2                     31 10.0    0.000    0.001    2.093    2.171
 powell_optimize                 366789  7.0    1.651    2.092    1.651    2.092
 fft_wrap_pw1pw2_200                 18 10.9    0.110    0.143    1.686    1.734
 calc_pair_dist_radii                 1  6.0    0.579    0.732    1.277    1.685
 fft3d_ps                            31 12.0    0.739    0.847    1.551    1.633
 mp_sum_l                          3421 10.9    0.870    1.613    0.870    1.613
 rs_pw_transfer                      22  8.7    0.001    0.001    1.472    1.528
 dbcsr_multiply_generic             692  9.9    0.026    0.027    1.358    1.522
 integrate_four_center_load           1  6.0    0.000    0.000    0.712    1.496
 hfx_load_balance                     1  7.0    0.000    0.000    0.712    1.496
 hfx_load_balance_range               1  8.0    0.001    0.023    0.677    1.461
 GW_postprocessing                    1  7.0    0.000    0.000    1.391    1.391
 compute_self_energy_im_time_gw       1  8.0    0.001    0.001    1.390    1.390
 mp_sum_dv                           40  8.0    0.656    1.353    0.656    1.353
 get_l_sq_wghts_sin_tf_t_to_w         1  7.0    0.813    1.311    1.312    1.313
 get_l_sq_wghts_cos_tf_w_to_t         1  7.0    0.792    1.293    1.295    1.296
 get_l_sq_wghts_cos_tf_t_to_w         1  7.0    0.793    1.289    1.291    1.293
 qs_init_subsys                       1  2.0    0.005    0.005    1.145    1.146
 mp_waitall_1                     37832 13.5    0.787    1.060    0.787    1.060
 sum_up_and_integrate                 2  7.0    0.003    0.004    1.003    1.038
 integrate_v_rspace                   2  8.0    0.002    0.039    1.000    1.036
 potential_pw2rs                      2  9.0    0.000    0.001    0.995    0.995
 multiply_cannon                    692 10.9    0.081    0.086    0.713    0.984
 qs_env_setup                         1  3.0    0.000    0.000    0.835    0.898
 qs_env_rebuild_pw_env                2  3.5    0.000    0.000    0.834    0.897
 pw_env_rebuild                       1  5.0    0.001    0.002    0.834    0.897
 qs_vxc_create                        2  7.0    0.000    0.000    0.856    0.856
 xc_vxc_pw_create                     1  9.0    0.011    0.015    0.856    0.856
 mp_alltoall_z22v                    31 14.0    0.565    0.802    0.565    0.802
 pw_grid_setup                        5  6.0    0.000    0.000    0.781    0.782
 pw_grid_setup_internal               5  7.0    0.016    0.019    0.781    0.782
 qs_rho_update_rho                    2  5.0    0.000    0.000    0.724    0.724
 calculate_rho_elec                   2  6.0    0.006    0.049    0.721    0.721
 mp_sum_d                           901  5.8    0.480    0.716    0.480    0.716
 mp_waitany                         400 10.6    0.431    0.687    0.431    0.687
 density_rs2pw                        2  7.0    0.000    0.000    0.657    0.670
 compute_self_energy_im_time_gw     210  9.0    0.000    0.001    0.524    0.621
 prepare_gapw_den                     2  7.0    0.000    0.000    0.596    0.613
 pw_grid_sort                         5  8.0    0.355    0.411    0.512    0.585
 yz_to_x                             16 12.9    0.118    0.150    0.464    0.565
 pw_poisson_solve                     3  6.0    0.055    0.073    0.552    0.552
 rpa_num_int_im_t_alloc_mat_gw        1  7.0    0.000    0.000    0.030    0.548
 allocate_matrices_gw_im_time         1  8.0    0.000    0.000    0.030    0.548
 multiply_cannon_metrocomm3        7831 11.9    0.011    0.013    0.198    0.548
 get_mat_3c_overl_int_gw              1  9.0    0.000    0.000    0.030    0.548
 fill_mat_3c_overl_int_gw             1 10.0    0.000    0.000    0.026    0.544
 cp_fm_copy_general                   2  8.0    0.000    0.000    0.519    0.542
 rpa_num_int_im_t_alloc_mat_24        1  7.0    0.000    0.000    0.518    0.542
 cp_fm_start_copy_general             2  9.0    0.000    0.001    0.518    0.542
 mp_allgather_i                       4 10.0    0.518    0.541    0.518    0.541
 GW3c_fill_mat                        1 11.0    0.009    0.216    0.022    0.540
 rs_pw_transfer_PW2RS_30              2 11.0    0.017    0.024    0.450    0.505
 multiply_cannon_multrec           7831 11.9    0.074    0.462    0.103    0.466
 pw_poisson_rebuild                   3  7.0    0.004    0.007    0.423    0.465
 make_m2s                          1384 10.9    0.024    0.026    0.401    0.464
 MTin_create_screen_fn                1 10.0    0.010    0.015    0.418    0.462
 rs_pw_transfer_RS2PW_200             5  9.2    0.195    0.240    0.405    0.448
 multiply_cannon_metrocomm1        7831 11.9    0.007    0.008    0.085    0.447
 rs_pw_transfer_PW2RS_200             5  9.6    0.203    0.243    0.409    0.440
 xc_rho_set_and_dset_create           1 10.0    0.007    0.014    0.369    0.434
 -------------------------------------------------------------------------------

 The number of warnings for this run is : 2
 
 -------------------------------------------------------------------------------
  **** **** ******  **  PROGRAM ENDED AT                 2019-05-30 20:36:19.607
 ***** ** ***  *** **   PROGRAM RAN ON                                    tcopt4
 **    ****   ******    PROGRAM RAN BY                                   wilhelm
 ***** **    ** ** **   PROGRAM PROCESS ID                                  5318
  **** **  *******  **  PROGRAM STOPPED IN /data/wilhelm/2_job_test/11_GW100/3_c
                                           alcs/02_Ne
