 DBCSR| CPU Multiplication driver                                           BLAS
 DBCSR| Multrec recursion limit                                              512
 DBCSR| Multiplication stack size                                           1000
 DBCSR| Maximum elements for images                                    UNLIMITED
 DBCSR| Multiplicative factor virtual images                                   1
 DBCSR| Use multiplication densification                                       T
 DBCSR| Multiplication size stacks                                             3
 DBCSR| Number of 3D layers                                               SINGLE
 DBCSR| Use MPI memory allocation                                              T
 DBCSR| Use RMA algorithm                                                      F
 DBCSR| Use Communication thread                                               T
 DBCSR| Communication thread load                                             87


  **** **** ******  **  PROGRAM STARTED AT               2019-05-31 17:22:28.554
 ***** ** ***  *** **   PROGRAM STARTED ON                                tcopt4
 **    ****   ******    PROGRAM STARTED BY                               wilhelm
 ***** **    ** ** **   PROGRAM PROCESS ID                                 83823
  **** **  *******  **  PROGRAM STARTED IN /data/wilhelm/2_job_test/11_GW100/3_c
                                           alcs/57_AlF3

 CP2K| version string:                    CP2K version 7.0 (Development Version)
 CP2K| source code revision number:                                  git:026fb12
 CP2K| cp2kflags: libint fftw3 libxc pexsi elpa=201705 parallel mpi3 scalapack q
 CP2K|            uip libderiv_max_am1=5 libint_max_am=6
 CP2K| is freely available from                            https://www.cp2k.org/
 CP2K| Program compiled at                         Sat May 11 13:15:02 CEST 2019
 CP2K| Program compiled on                                                tcopt4
 CP2K| Program compiled for                            local_valgrind_March_2019
 CP2K| Data directory path              /data/wilhelm/1_git_repository/cp2k/data
 CP2K| Input file name                                                    GW.inp

 GLOBAL| Force Environment number                                              1
 GLOBAL| Basis set file name                              BASIS_def2_QZVP_RI_ALL
 GLOBAL| Potential file name                                           POTENTIAL
 GLOBAL| MM Potential file name                                     MM_POTENTIAL
 GLOBAL| Coordinate file name                                        57_AlF3.xyz
 GLOBAL| Method name                                                        CP2K
 GLOBAL| Project name                                                   ALL_ELEC
 GLOBAL| Preferred FFT library                                             FFTW3
 GLOBAL| Preferred diagonalization lib.                                       SL
 GLOBAL| Run type                                                         ENERGY
 GLOBAL| All-to-all communication in single precision                          F
 GLOBAL| FFTs using library dependent lengths                                  F
 GLOBAL| Global print level                                               MEDIUM
 GLOBAL| MPI I/O enabled                                                       T
 GLOBAL| Total number of message passing processes                            40
 GLOBAL| Number of threads for this process                                    1
 GLOBAL| This output is from process                                           0
 GLOBAL| CPU model name :  Intel(R) Xeon(R) CPU E5-2697 v3 @ 2.60GHz

 MEMORY| system memory details [Kb]
 MEMORY|                        rank 0           min           max       average
 MEMORY| MemTotal            396954008     396954008     396954008     396954008
 MEMORY| MemFree             376181544     376181544     376181544     376181544
 MEMORY| Buffers                337344        337344        337344        337344
 MEMORY| Cached               16066768      16066768      16066768      16066768
 MEMORY| Slab                   609636        609636        609636        609636
 MEMORY| SReclaimable           466236        466236        466236        466236
 MEMORY| MemLikelyFree       393051892     393051892     393051892     393051892


 *** Fundamental physical constants (SI units) ***

 *** Literature: B. J. Mohr and B. N. Taylor,
 ***             CODATA recommended values of the fundamental physical
 ***             constants: 2006, Web Version 5.1
 ***             http://physics.nist.gov/constants

 Speed of light in vacuum [m/s]                             2.99792458000000E+08
 Magnetic constant or permeability of vacuum [N/A**2]       1.25663706143592E-06
 Electric constant or permittivity of vacuum [F/m]          8.85418781762039E-12
 Planck constant (h) [J*s]                                  6.62606896000000E-34
 Planck constant (h-bar) [J*s]                              1.05457162825177E-34
 Elementary charge [C]                                      1.60217648700000E-19
 Electron mass [kg]                                         9.10938215000000E-31
 Electron g factor [ ]                                     -2.00231930436220E+00
 Proton mass [kg]                                           1.67262163700000E-27
 Fine-structure constant                                    7.29735253760000E-03
 Rydberg constant [1/m]                                     1.09737315685270E+07
 Avogadro constant [1/mol]                                  6.02214179000000E+23
 Boltzmann constant [J/K]                                   1.38065040000000E-23
 Atomic mass unit [kg]                                      1.66053878200000E-27
 Bohr radius [m]                                            5.29177208590000E-11

 *** Conversion factors ***

 [u] -> [a.u.]                                              1.82288848426455E+03
 [Angstrom] -> [Bohr] = [a.u.]                              1.88972613288564E+00
 [a.u.] = [Bohr] -> [Angstrom]                              5.29177208590000E-01
 [a.u.] -> [s]                                              2.41888432650478E-17
 [a.u.] -> [fs]                                             2.41888432650478E-02
 [a.u.] -> [J]                                              4.35974393937059E-18
 [a.u.] -> [N]                                              8.23872205491840E-08
 [a.u.] -> [K]                                              3.15774647902944E+05
 [a.u.] -> [kJ/mol]                                         2.62549961709828E+03
 [a.u.] -> [kcal/mol]                                       6.27509468713739E+02
 [a.u.] -> [Pa]                                             2.94210107994716E+13
 [a.u.] -> [bar]                                            2.94210107994716E+08
 [a.u.] -> [atm]                                            2.90362800883016E+08
 [a.u.] -> [eV]                                             2.72113838565563E+01
 [a.u.] -> [Hz]                                             6.57968392072181E+15
 [a.u.] -> [1/cm] (wave numbers)                            2.19474631370540E+05
 [a.u./Bohr**2] -> [1/cm]                                   5.14048714338585E+03
 

 CELL_TOP| Volume [angstrom^3]:                                         4096.000
 CELL_TOP| Vector a [angstrom    16.000     0.000     0.000    |a| =      16.000
 CELL_TOP| Vector b [angstrom     0.000    16.000     0.000    |b| =      16.000
 CELL_TOP| Vector c [angstrom     0.000     0.000    16.000    |c| =      16.000
 CELL_TOP| Angle (b,c), alpha [degree]:                                   90.000
 CELL_TOP| Angle (a,c), beta  [degree]:                                   90.000
 CELL_TOP| Angle (a,b), gamma [degree]:                                   90.000
 CELL_TOP| Numerically orthorhombic:                                         YES

 GENERATE|  Preliminary Number of Bonds generated:                             0
 GENERATE|  Achieved consistency in connectivity generation.

 CELL| Volume [angstrom^3]:                                             4096.000
 CELL| Vector a [angstrom]:      16.000     0.000     0.000    |a| =      16.000
 CELL| Vector b [angstrom]:       0.000    16.000     0.000    |b| =      16.000
 CELL| Vector c [angstrom]:       0.000     0.000    16.000    |c| =      16.000
 CELL| Angle (b,c), alpha [degree]:                                       90.000
 CELL| Angle (a,c), beta  [degree]:                                       90.000
 CELL| Angle (a,b), gamma [degree]:                                       90.000
 CELL| Numerically orthorhombic:                                             YES

 CELL_REF| Volume [angstrom^3]:                                         4096.000
 CELL_REF| Vector a [angstrom    16.000     0.000     0.000    |a| =      16.000
 CELL_REF| Vector b [angstrom     0.000    16.000     0.000    |b| =      16.000
 CELL_REF| Vector c [angstrom     0.000     0.000    16.000    |c| =      16.000
 CELL_REF| Angle (b,c), alpha [degree]:                                   90.000
 CELL_REF| Angle (a,c), beta  [degree]:                                   90.000
 CELL_REF| Angle (a,b), gamma [degree]:                                   90.000
 CELL_REF| Numerically orthorhombic:                                         YES

 *******************************************************************************
 *******************************************************************************
 **                                                                           **
 **     #####                         ##              ##                      **
 **    ##   ##            ##          ##              ##                      **
 **   ##     ##                       ##            ######                    **
 **   ##     ##  ##   ##  ##   #####  ##  ##   ####   ##    #####    #####    **
 **   ##     ##  ##   ##  ##  ##      ## ##   ##      ##   ##   ##  ##   ##   **
 **   ##  ## ##  ##   ##  ##  ##      ####     ###    ##   ######   ######    **
 **    ##  ###   ##   ##  ##  ##      ## ##      ##   ##   ##       ##        **
 **     #######   #####   ##   #####  ##  ##  ####    ##    #####   ##        **
 **           ##                                                    ##        **
 **                                                                           **
 **                                                ... make the atoms dance   **
 **                                                                           **
 **            Copyright (C) by CP2K developers group (2000 - 2019)           **
 **                                                                           **
 *******************************************************************************

 DFT| Spin restricted Kohn-Sham (RKS) calculation                            RKS
 DFT| Multiplicity                                                             1
 DFT| Number of spin states                                                    1
 DFT| Charge                                                                   0
 DFT| Self-interaction correction (SIC)                                       NO
 DFT| Cutoffs: density                                              1.000000E-10
 DFT|          gradient                                             1.000000E-10
 DFT|          tau                                                  1.000000E-10
 DFT|          cutoff_smoothing_range                               0.000000E+00
 DFT| XC density smoothing                                                  NONE
 DFT| XC derivatives                                                          PW
 FUNCTIONAL| ROUTINE=NEW
 FUNCTIONAL| PBE:
 FUNCTIONAL| J.P.Perdew, K.Burke, M.Ernzerhof, Phys. Rev. Letter, vol. 77, n 18,
 FUNCTIONAL|  pp. 3865-3868, (1996){spin unpolarized}                           

 QS| Method:                                                                GAPW
 QS| Density plane wave grid type                        NON-SPHERICAL FULLSPACE
 QS| Number of grid levels:                                                    4
 QS| Density cutoff [a.u.]:                                                200.0
 QS| Multi grid cutoff [a.u.]: 1) grid level                               200.0
 QS|                           2) grid level                                66.7
 QS|                           3) grid level                                22.2
 QS|                           4) grid level                                 7.4
 QS| Grid level progression factor:                                          3.0
 QS| Relative density cutoff [a.u.]:                                        25.0
 QS| Consistent realspace mapping and integration 
 QS| Interaction thresholds: eps_pgf_orb:                                1.0E-05
 QS|                         eps_filter_matrix:                          0.0E+00
 QS|                         eps_core_charge:                            1.0E-12
 QS|                         eps_rho_gspace:                             1.0E-10
 QS|                         eps_rho_rspace:                             1.0E-10
 QS|                         eps_gvg_rspace:                             1.0E-05
 QS|                         eps_ppl:                                    1.0E-02
 QS|                         eps_ppnl:                                   1.0E-07
 QS| GAPW|                   eps_fit:                                    1.0E-04
 QS| GAPW|                   eps_iso:                                    1.0E-12
 QS| GAPW|                   eps_svd:                                    1.0E-08
 QS| GAPW|                   eps_cpc:                                    1.0E-10
 QS| GAPW|   atom-r-grid: quadrature:                 GC_LOG                        
 QS| GAPW|      atom-s-grid:  max l :                                          8
 QS| GAPW|      max_l_rho0 :                                                   2


 ATOMIC KIND INFORMATION

  1. Atomic kind: Al                                    Number of atoms:       1

     Orbital Basis Set                                                 def2-QZVP

       Number of orbital shell sets:                                          22
       Number of orbital shells:                                              22
       Number of primitive Cartesian functions:                               41
       Number of Cartesian basis functions:                                   86
       Number of spherical basis functions:                                   70
       Norm type:                                                              2

       Normalised Cartesian orbitals:

                        Set   Shell   Orbital            Exponent    Coefficient

                          1       1    1s           754550.782650       0.288556
                                                    112999.389220       0.539999
                                                     25715.831759       0.935254
                                                      7283.603028       1.528741
                                                      2376.000880       2.380946
                                                       857.654681       3.516019
                                                       334.389226       4.822930
                                                       138.485047       5.825658
                                                        60.150369       5.630484
                                                        27.127611       3.560570

                          2       1    1s              225.365001       1.100390
                                                        69.341968       3.914378
                                                        26.619336       6.544810

                          3       1    1s               12.349421       4.695102

                          4       1    1s                4.587879       2.234184

                          5       1    1s                2.057134       1.224213

                          6       1    1s                0.908645       0.663294

                          7       1    1s                0.242270       0.246113

                          8       1    1s                0.112481       0.138427

                          9       1    1s                0.048156       0.073266

                         10       1    1px            1489.611952       2.939807
                                                       353.013993       4.217910
                                                       114.407641       5.562533
                                                        43.312186       6.449565
                                                        18.027322       6.370517
                                                         7.967543       4.903357
                                                         3.609040       2.713193
                                                         1.645608       0.981303
                         10       1    1py            1489.611952       2.939807
                                                       353.013993       4.217910
                                                       114.407641       5.562533
                                                        43.312186       6.449565
                                                        18.027322       6.370517
                                                         7.967543       4.903357
                                                         3.609040       2.713193
                                                         1.645608       0.981303
                         10       1    1pz            1489.611952       2.939807
                                                       353.013993       4.217910
                                                       114.407641       5.562533
                                                        43.312186       6.449565
                                                        18.027322       6.370517
                                                         7.967543       4.903357
                                                         3.609040       2.713193
                                                         1.645608       0.981303

                         11       1    1px              34.731187       3.577641
                                                         1.255308      -1.897757
                         11       1    1py              34.731187       3.577641
                                                         1.255308      -1.897757
                         11       1    1pz              34.731187       3.577641
                                                         1.255308      -1.897757

                         12       1    1px               0.736355       0.972298
                         12       1    1py               0.736355       0.972298
                         12       1    1pz               0.736355       0.972298

                         13       1    1px               0.246865       0.248035
                         13       1    1py               0.246865       0.248035
                         13       1    1pz               0.246865       0.248035

                         14       1    1px               0.094822       0.075003
                         14       1    1py               0.094822       0.075003
                         14       1    1pz               0.094822       0.075003

                         15       1    1px               0.036214       0.022518
                         15       1    1py               0.036214       0.022518
                         15       1    1pz               0.036214       0.022518

                         16       1    1dx2              1.970000       5.391695
                         16       1    1dxy              1.970000       9.338690
                         16       1    1dxz              1.970000       9.338690
                         16       1    1dy2              1.970000       5.391695
                         16       1    1dyz              1.970000       9.338690
                         16       1    1dz2              1.970000       5.391695

                         17       1    1dx2              0.437000       0.386591
                         17       1    1dxy              0.437000       0.669596
                         17       1    1dxz              0.437000       0.669596
                         17       1    1dy2              0.437000       0.386591
                         17       1    1dyz              0.437000       0.669596
                         17       1    1dz2              0.437000       0.386591

                         18       1    1dx2              0.195000       0.094182
                         18       1    1dxy              0.195000       0.163129
                         18       1    1dxz              0.195000       0.163129
                         18       1    1dy2              0.195000       0.094182
                         18       1    1dyz              0.195000       0.163129
                         18       1    1dz2              0.195000       0.094182

                         19       1    1dx2              0.080000       0.019807
                         19       1    1dxy              0.080000       0.034307
                         19       1    1dxz              0.080000       0.034307
                         19       1    1dy2              0.080000       0.019807
                         19       1    1dyz              0.080000       0.034307
                         19       1    1dz2              0.080000       0.019807

                         20       1    1fx3              0.154000       0.021871
                         20       1    1fx2y             0.154000       0.048906
                         20       1    1fx2z             0.154000       0.048906
                         20       1    1fxy2             0.154000       0.048906
                         20       1    1fxyz             0.154000       0.084707
                         20       1    1fxz2             0.154000       0.048906
                         20       1    1fy3              0.154000       0.021871
                         20       1    1fy2z             0.154000       0.048906
                         20       1    1fyz2             0.154000       0.048906
                         20       1    1fz3              0.154000       0.021871

                         21       1    1fx3              0.401000       0.188378
                         21       1    1fx2y             0.401000       0.421225
                         21       1    1fx2z             0.401000       0.421225
                         21       1    1fxy2             0.401000       0.421225
                         21       1    1fxyz             0.401000       0.729583
                         21       1    1fxz2             0.401000       0.421225
                         21       1    1fy3              0.401000       0.188378
                         21       1    1fy2z             0.401000       0.421225
                         21       1    1fyz2             0.401000       0.421225
                         21       1    1fz3              0.401000       0.188378

                         22       1    1gx4              0.357000       0.065505
                         22       1    1gx3y             0.357000       0.173309
                         22       1    1gx3z             0.357000       0.173309
                         22       1    1gx2y2            0.357000       0.223741
                         22       1    1gx2yz            0.357000       0.387532
                         22       1    1gx2z2            0.357000       0.223741
                         22       1    1gxy3             0.357000       0.173309
                         22       1    1gxy2z            0.357000       0.387532
                         22       1    1gxyz2            0.357000       0.387532
                         22       1    1gxz3             0.357000       0.173309
                         22       1    1gy4              0.357000       0.065505
                         22       1    1gy3z             0.357000       0.173309
                         22       1    1gy2z2            0.357000       0.223741
                         22       1    1gyz3             0.357000       0.173309
                         22       1    1gz4              0.357000       0.065505

     RI Auxiliary Basis Set                                                RI-5Z

       Number of orbital shell sets:                                          48
       Number of orbital shells:                                              48
       Number of primitive Cartesian functions:                               48
       Number of Cartesian basis functions:                                  335
       Number of spherical basis functions:                                  230
       Norm type:                                                              2

       Normalised Cartesian orbitals:

                        Set   Shell   Orbital            Exponent    Coefficient

                          1       1    1s              622.658000      88.837693

                          2       1    1s              126.723000      26.918551

                          3       1    1s               50.988000      13.599128

                          4       1    1s               16.901500       5.940924

                          5       1    1s                8.596280       3.578022

                          6       1    1s                2.999320       1.624341

                          7       1    1s                1.703290       1.062616

                          8       1    1s                0.793673       0.599296

                          9       1    1s                0.431825       0.379657

                         10       1    1s                0.263767       0.262316

                         11       1    1s                0.167892       0.186932

                         12       1    1s                0.096048       0.122963

                         13       1    1px             181.655000     950.603225
                         13       1    1py             181.655000     950.603225
                         13       1    1pz             181.655000     950.603225

                         14       1    1px              53.046300     204.060506
                         14       1    1py              53.046300     204.060506
                         14       1    1pz              53.046300     204.060506

                         15       1    1px              20.473500      62.076926
                         15       1    1py              20.473500      62.076926
                         15       1    1pz              20.473500      62.076926

                         16       1    1px               8.198240      19.773833
                         16       1    1py               8.198240      19.773833
                         16       1    1pz               8.198240      19.773833

                         17       1    1px               3.995940       8.053113
                         17       1    1py               3.995940       8.053113
                         17       1    1pz               3.995940       8.053113

                         18       1    1px               1.799910       2.971690
                         18       1    1py               1.799910       2.971690
                         18       1    1pz               1.799910       2.971690

                         19       1    1px               0.860716       1.181721
                         19       1    1py               0.860716       1.181721
                         19       1    1pz               0.860716       1.181721

                         20       1    1px               0.540931       0.661253
                         20       1    1py               0.540931       0.661253
                         20       1    1pz               0.540931       0.661253

                         21       1    1px               0.320945       0.344333
                         21       1    1py               0.320945       0.344333
                         21       1    1pz               0.320945       0.344333

                         22       1    1px               0.205576       0.197313
                         22       1    1py               0.205576       0.197313
                         22       1    1pz               0.205576       0.197313

                         23       1    1px               0.097041       0.077203
                         23       1    1py               0.097041       0.077203
                         23       1    1pz               0.097041       0.077203

                         24       1    1dx2             43.013400    1189.093646
                         24       1    1dxy             43.013400    2059.570610
                         24       1    1dxz             43.013400    2059.570610
                         24       1    1dy2             43.013400    1189.093646
                         24       1    1dyz             43.013400    2059.570610
                         24       1    1dz2             43.013400    1189.093646

                         25       1    1dx2             13.065100     147.776967
                         25       1    1dxy             13.065100     255.957215
                         25       1    1dxz             13.065100     255.957215
                         25       1    1dy2             13.065100     147.776967
                         25       1    1dyz             13.065100     255.957215
                         25       1    1dz2             13.065100     147.776967

                         26       1    1dx2              4.528950      23.142226
                         26       1    1dxy              4.528950      40.083511
                         26       1    1dxz              4.528950      40.083511
                         26       1    1dy2              4.528950      23.142226
                         26       1    1dyz              4.528950      40.083511
                         26       1    1dz2              4.528950      23.142226

                         27       1    1dx2              2.005540       5.563067
                         27       1    1dxy              2.005540       9.635514
                         27       1    1dxz              2.005540       9.635514
                         27       1    1dy2              2.005540       5.563067
                         27       1    1dyz              2.005540       9.635514
                         27       1    1dz2              2.005540       5.563067

                         28       1    1dx2              0.850034       1.238577
                         28       1    1dxy              0.850034       2.145278
                         28       1    1dxz              0.850034       2.145278
                         28       1    1dy2              0.850034       1.238577
                         28       1    1dyz              0.850034       2.145278
                         28       1    1dz2              0.850034       1.238577

                         29       1    1dx2              0.484888       0.463748
                         29       1    1dxy              0.484888       0.803235
                         29       1    1dxz              0.484888       0.803235
                         29       1    1dy2              0.484888       0.463748
                         29       1    1dyz              0.484888       0.803235
                         29       1    1dz2              0.484888       0.463748

                         30       1    1dx2              0.319410       0.223367
                         30       1    1dxy              0.319410       0.386883
                         30       1    1dxz              0.319410       0.386883
                         30       1    1dy2              0.319410       0.223367
                         30       1    1dyz              0.319410       0.386883
                         30       1    1dz2              0.319410       0.223367

                         31       1    1dx2              0.209892       0.107128
                         31       1    1dxy              0.209892       0.185551
                         31       1    1dxz              0.209892       0.185551
                         31       1    1dy2              0.209892       0.107128
                         31       1    1dyz              0.209892       0.185551
                         31       1    1dz2              0.209892       0.107128

                         32       1    1dx2              0.120513       0.040571
                         32       1    1dxy              0.120513       0.070272
                         32       1    1dxz              0.120513       0.070272
                         32       1    1dy2              0.120513       0.040571
                         32       1    1dyz              0.120513       0.070272
                         32       1    1dz2              0.120513       0.040571

                         33       1    1fx3              9.082230     210.808232
                         33       1    1fx2y             9.082230     471.381536
                         33       1    1fx2z             9.082230     471.381536
                         33       1    1fxy2             9.082230     471.381536
                         33       1    1fxyz             9.082230     816.456771
                         33       1    1fxz2             9.082230     471.381536
                         33       1    1fy3              9.082230     210.808232
                         33       1    1fy2z             9.082230     471.381536
                         33       1    1fyz2             9.082230     471.381536
                         33       1    1fz3              9.082230     210.808232

                         34       1    1fx3              4.296170      39.118999
                         34       1    1fx2y             4.296170      87.472740
                         34       1    1fx2z             4.296170      87.472740
                         34       1    1fxy2             4.296170      87.472740
                         34       1    1fxyz             4.296170     151.507231
                         34       1    1fxz2             4.296170      87.472740
                         34       1    1fy3              4.296170      39.118999
                         34       1    1fy2z             4.296170      87.472740
                         34       1    1fyz2             4.296170      87.472740
                         34       1    1fz3              4.296170      39.118999

                         35       1    1fx3              1.508090       3.710358
                         35       1    1fx2y             1.508090       8.296612
                         35       1    1fx2z             1.508090       8.296612
                         35       1    1fxy2             1.508090       8.296612
                         35       1    1fxyz             1.508090      14.370154
                         35       1    1fxz2             1.508090       8.296612
                         35       1    1fy3              1.508090       3.710358
                         35       1    1fy2z             1.508090       8.296612
                         35       1    1fyz2             1.508090       8.296612
                         35       1    1fz3              1.508090       3.710358

                         36       1    1fx3              0.747970       0.765938
                         36       1    1fx2y             0.747970       1.712690
                         36       1    1fx2z             0.747970       1.712690
                         36       1    1fxy2             0.747970       1.712690
                         36       1    1fxyz             0.747970       2.966467
                         36       1    1fxz2             0.747970       1.712690
                         36       1    1fy3              0.747970       0.765938
                         36       1    1fy2z             0.747970       1.712690
                         36       1    1fyz2             0.747970       1.712690
                         36       1    1fz3              0.747970       0.765938

                         37       1    1fx3              0.439091       0.231048
                         37       1    1fx2y             0.439091       0.516639
                         37       1    1fx2z             0.439091       0.516639
                         37       1    1fxy2             0.439091       0.516639
                         37       1    1fxyz             0.439091       0.894845
                         37       1    1fxz2             0.439091       0.516639
                         37       1    1fy3              0.439091       0.231048
                         37       1    1fy2z             0.439091       0.516639
                         37       1    1fyz2             0.439091       0.516639
                         37       1    1fz3              0.439091       0.231048

                         38       1    1fx3              0.278218       0.082760
                         38       1    1fx2y             0.278218       0.185057
                         38       1    1fx2z             0.278218       0.185057
                         38       1    1fxy2             0.278218       0.185057
                         38       1    1fxyz             0.278218       0.320529
                         38       1    1fxz2             0.278218       0.185057
                         38       1    1fy3              0.278218       0.082760
                         38       1    1fy2z             0.278218       0.185057
                         38       1    1fyz2             0.278218       0.185057
                         38       1    1fz3              0.278218       0.082760

                         39       1    1fx3              0.170021       0.027327
                         39       1    1fx2y             0.170021       0.061104
                         39       1    1fx2z             0.170021       0.061104
                         39       1    1fxy2             0.170021       0.061104
                         39       1    1fxyz             0.170021       0.105835
                         39       1    1fxz2             0.170021       0.061104
                         39       1    1fy3              0.170021       0.027327
                         39       1    1fy2z             0.170021       0.061104
                         39       1    1fyz2             0.170021       0.061104
                         39       1    1fz3              0.170021       0.027327

                         40       1    1gx4              3.240940      28.234536
                         40       1    1gx3y             3.240940      74.701560
                         40       1    1gx3z             3.240940      74.701560
                         40       1    1gx2y2            3.240940      96.439299
                         40       1    1gx2yz            3.240940     167.037766
                         40       1    1gx2z2            3.240940      96.439299
                         40       1    1gxy3             3.240940      74.701560
                         40       1    1gxy2z            3.240940     167.037766
                         40       1    1gxyz2            3.240940     167.037766
                         40       1    1gxz3             3.240940      74.701560
                         40       1    1gy4              3.240940      28.234536
                         40       1    1gy3z             3.240940      74.701560
                         40       1    1gy2z2            3.240940      96.439299
                         40       1    1gyz3             3.240940      74.701560
                         40       1    1gz4              3.240940      28.234536

                         41       1    1gx4              1.440740       3.037707
                         41       1    1gx3y             1.440740       8.037017
                         41       1    1gx3z             1.440740       8.037017
                         41       1    1gx2y2            1.440740      10.375744
                         41       1    1gx2yz            1.440740      17.971316
                         41       1    1gx2z2            1.440740      10.375744
                         41       1    1gxy3             1.440740       8.037017
                         41       1    1gxy2z            1.440740      17.971316
                         41       1    1gxyz2            1.440740      17.971316
                         41       1    1gxz3             1.440740       8.037017
                         41       1    1gy4              1.440740       3.037707
                         41       1    1gy3z             1.440740       8.037017
                         41       1    1gy2z2            1.440740      10.375744
                         41       1    1gyz3             1.440740       8.037017
                         41       1    1gz4              1.440740       3.037707

                         42       1    1gx4              0.630760       0.313373
                         42       1    1gx3y             0.630760       0.829107
                         42       1    1gx3z             0.630760       0.829107
                         42       1    1gx2y2            0.630760       1.070373
                         42       1    1gx2yz            0.630760       1.853941
                         42       1    1gx2z2            0.630760       1.070373
                         42       1    1gxy3             0.630760       0.829107
                         42       1    1gxy2z            0.630760       1.853941
                         42       1    1gxyz2            0.630760       1.853941
                         42       1    1gxz3             0.630760       0.829107
                         42       1    1gy4              0.630760       0.313373
                         42       1    1gy3z             0.630760       0.829107
                         42       1    1gy2z2            0.630760       1.070373
                         42       1    1gyz3             0.630760       0.829107
                         42       1    1gz4              0.630760       0.313373

                         43       1    1gx4              0.368941       0.071708
                         43       1    1gx3y             0.368941       0.189721
                         43       1    1gx3z             0.368941       0.189721
                         43       1    1gx2y2            0.368941       0.244929
                         43       1    1gx2yz            0.368941       0.424230
                         43       1    1gx2z2            0.368941       0.244929
                         43       1    1gxy3             0.368941       0.189721
                         43       1    1gxy2z            0.368941       0.424230
                         43       1    1gxyz2            0.368941       0.424230
                         43       1    1gxz3             0.368941       0.189721
                         43       1    1gy4              0.368941       0.071708
                         43       1    1gy3z             0.368941       0.189721
                         43       1    1gy2z2            0.368941       0.244929
                         43       1    1gyz3             0.368941       0.189721
                         43       1    1gz4              0.368941       0.071708

                         44       1    1gx4              0.179601       0.009903
                         44       1    1gx3y             0.179601       0.026202
                         44       1    1gx3z             0.179601       0.026202
                         44       1    1gx2y2            0.179601       0.033827
                         44       1    1gx2yz            0.179601       0.058589
                         44       1    1gx2z2            0.179601       0.033827
                         44       1    1gxy3             0.179601       0.026202
                         44       1    1gxy2z            0.179601       0.058589
                         44       1    1gxyz2            0.179601       0.058589
                         44       1    1gxz3             0.179601       0.026202
                         44       1    1gy4              0.179601       0.009903
                         44       1    1gy3z             0.179601       0.026202
                         44       1    1gy2z2            0.179601       0.033827
                         44       1    1gyz3             0.179601       0.026202
                         44       1    1gz4              0.179601       0.009903

                         45       1    1hx5              1.850340       5.481655
                         45       1    1hx4y             1.850340      16.444964
                         45       1    1hx4z             1.850340      16.444964
                         45       1    1hx3y2            1.850340      25.120097
                         45       1    1hx3yz            1.850340      43.509284
                         45       1    1hx3z2            1.850340      25.120097
                         45       1    1hx2y3            1.850340      25.120097
                         45       1    1hx2y2z           1.850340      56.170244
                         45       1    1hx2yz2           1.850340      56.170244
                         45       1    1hx2z3            1.850340      25.120097
                         45       1    1hxy4             1.850340      16.444964
                         45       1    1hxy3z            1.850340      43.509284
                         45       1    1hxy2z2           1.850340      56.170244
                         45       1    1hxyz3            1.850340      43.509284
                         45       1    1hxz4             1.850340      16.444964
                         45       1    1hy5              1.850340       5.481655
                         45       1    1hy4z             1.850340      16.444964
                         45       1    1hy3z2            1.850340      25.120097
                         45       1    1hy2z3            1.850340      25.120097
                         45       1    1hyz4             1.850340      16.444964
                         45       1    1hz5              1.850340       5.481655

                         46       1    1hx5              0.613491       0.151608
                         46       1    1hx4y             0.613491       0.454823
                         46       1    1hx4z             0.613491       0.454823
                         46       1    1hx3y2            0.613491       0.694753
                         46       1    1hx3yz            0.613491       1.203348
                         46       1    1hx3z2            0.613491       0.694753
                         46       1    1hx2y3            0.613491       0.694753
                         46       1    1hx2y2z           0.613491       1.553515
                         46       1    1hx2yz2           0.613491       1.553515
                         46       1    1hx2z3            0.613491       0.694753
                         46       1    1hxy4             0.613491       0.454823
                         46       1    1hxy3z            0.613491       1.203348
                         46       1    1hxy2z2           0.613491       1.553515
                         46       1    1hxyz3            0.613491       1.203348
                         46       1    1hxz4             0.613491       0.454823
                         46       1    1hy5              0.613491       0.151608
                         46       1    1hy4z             0.613491       0.454823
                         46       1    1hy3z2            0.613491       0.694753
                         46       1    1hy2z3            0.613491       0.694753
                         46       1    1hyz4             0.613491       0.454823
                         46       1    1hz5              0.613491       0.151608

                         47       1    1hx5              0.360425       0.026915
                         47       1    1hx4y             0.360425       0.080745
                         47       1    1hx4z             0.360425       0.080745
                         47       1    1hx3y2            0.360425       0.123340
                         47       1    1hx3yz            0.360425       0.213630
                         47       1    1hx3z2            0.360425       0.123340
                         47       1    1hx2y3            0.360425       0.123340
                         47       1    1hx2y2z           0.360425       0.275796
                         47       1    1hx2yz2           0.360425       0.275796
                         47       1    1hx2z3            0.360425       0.123340
                         47       1    1hxy4             0.360425       0.080745
                         47       1    1hxy3z            0.360425       0.213630
                         47       1    1hxy2z2           0.360425       0.275796
                         47       1    1hxyz3            0.360425       0.213630
                         47       1    1hxz4             0.360425       0.080745
                         47       1    1hy5              0.360425       0.026915
                         47       1    1hy4z             0.360425       0.080745
                         47       1    1hy3z2            0.360425       0.123340
                         47       1    1hy2z3            0.360425       0.123340
                         47       1    1hyz4             0.360425       0.080745
                         47       1    1hz5              0.360425       0.026915

                         48       1    1ix6              0.599455       0.065655
                         48       1    1ix5y             0.599455       0.217752
                         48       1    1ix5z             0.599455       0.217752
                         48       1    1ix4y2            0.599455       0.377157
                         48       1    1ix4yz            0.599455       0.653255
                         48       1    1ix4z2            0.599455       0.377157
                         48       1    1ix3y3            0.599455       0.446258
                         48       1    1ix3y2z           0.599455       0.997863
                         48       1    1ix3yz2           0.599455       0.997863
                         48       1    1ix3z3            0.599455       0.446258
                         48       1    1ix2y4            0.599455       0.377157
                         48       1    1ix2y3z           0.599455       0.997863
                         48       1    1ix2y2z2          0.599455       1.288236
                         48       1    1ix2yz3           0.599455       0.997863
                         48       1    1ix2z4            0.599455       0.377157
                         48       1    1ixy5             0.599455       0.217752
                         48       1    1ixy4z            0.599455       0.653255
                         48       1    1ixy3z2           0.599455       0.997863
                         48       1    1ixy2z3           0.599455       0.997863
                         48       1    1ixyz4            0.599455       0.653255
                         48       1    1ixz5             0.599455       0.217752
                         48       1    1iy6              0.599455       0.065655
                         48       1    1iy5z             0.599455       0.217752
                         48       1    1iy4z2            0.599455       0.377157
                         48       1    1iy3z3            0.599455       0.446258
                         48       1    1iy2z4            0.599455       0.377157
                         48       1    1iyz5             0.599455       0.217752
                         48       1    1iz6              0.599455       0.065655

     The atoms of this atomic kind are PAW atoms (GAPW):
       Hard Gaussian function radius:                                      1.512
       Rho0 radius:                                                        1.512
       Maximum GTO radius used for PAW projector construction:            24.566

     GAPW Soft Basis Set                                          def2-QZVP_soft

       Number of orbital shell sets:                                          22
       Number of orbital shells:                                              22
       Number of primitive Cartesian functions:                               19
       Number of Cartesian basis functions:                                   86
       Number of spherical basis functions:                                   70
       Norm type:                                                              2

       Normalised Cartesian orbitals:

                        Set   Shell   Orbital            Exponent    Coefficient

                          1       1    1s         

                          2       1    1s         

                          3       1    1s         

                          4       1    1s         

                          5       1    1s                2.057134       1.224213

                          6       1    1s                0.908645       0.663294

                          7       1    1s                0.242270       0.246113

                          8       1    1s                0.112481       0.138427

                          9       1    1s                0.048156       0.073266

                         10       1    1px               3.609040       2.713193
                                                         1.645608       0.981303
                         10       1    1py               3.609040       2.713193
                                                         1.645608       0.981303
                         10       1    1pz               3.609040       2.713193
                                                         1.645608       0.981303

                         11       1    1px               1.255308      -1.897757
                         11       1    1py               1.255308      -1.897757
                         11       1    1pz               1.255308      -1.897757

                         12       1    1px               0.736355       0.972298
                         12       1    1py               0.736355       0.972298
                         12       1    1pz               0.736355       0.972298

                         13       1    1px               0.246865       0.248035
                         13       1    1py               0.246865       0.248035
                         13       1    1pz               0.246865       0.248035

                         14       1    1px               0.094822       0.075003
                         14       1    1py               0.094822       0.075003
                         14       1    1pz               0.094822       0.075003

                         15       1    1px               0.036214       0.022518
                         15       1    1py               0.036214       0.022518
                         15       1    1pz               0.036214       0.022518

                         16       1    1dx2              1.970000       5.391695
                         16       1    1dxy              1.970000       9.338690
                         16       1    1dxz              1.970000       9.338690
                         16       1    1dy2              1.970000       5.391695
                         16       1    1dyz              1.970000       9.338690
                         16       1    1dz2              1.970000       5.391695

                         17       1    1dx2              0.437000       0.386591
                         17       1    1dxy              0.437000       0.669596
                         17       1    1dxz              0.437000       0.669596
                         17       1    1dy2              0.437000       0.386591
                         17       1    1dyz              0.437000       0.669596
                         17       1    1dz2              0.437000       0.386591

                         18       1    1dx2              0.195000       0.094182
                         18       1    1dxy              0.195000       0.163129
                         18       1    1dxz              0.195000       0.163129
                         18       1    1dy2              0.195000       0.094182
                         18       1    1dyz              0.195000       0.163129
                         18       1    1dz2              0.195000       0.094182

                         19       1    1dx2              0.080000       0.019807
                         19       1    1dxy              0.080000       0.034307
                         19       1    1dxz              0.080000       0.034307
                         19       1    1dy2              0.080000       0.019807
                         19       1    1dyz              0.080000       0.034307
                         19       1    1dz2              0.080000       0.019807

                         20       1    1fx3              0.154000       0.021871
                         20       1    1fx2y             0.154000       0.048906
                         20       1    1fx2z             0.154000       0.048906
                         20       1    1fxy2             0.154000       0.048906
                         20       1    1fxyz             0.154000       0.084707
                         20       1    1fxz2             0.154000       0.048906
                         20       1    1fy3              0.154000       0.021871
                         20       1    1fy2z             0.154000       0.048906
                         20       1    1fyz2             0.154000       0.048906
                         20       1    1fz3              0.154000       0.021871

                         21       1    1fx3              0.401000       0.188378
                         21       1    1fx2y             0.401000       0.421225
                         21       1    1fx2z             0.401000       0.421225
                         21       1    1fxy2             0.401000       0.421225
                         21       1    1fxyz             0.401000       0.729583
                         21       1    1fxz2             0.401000       0.421225
                         21       1    1fy3              0.401000       0.188378
                         21       1    1fy2z             0.401000       0.421225
                         21       1    1fyz2             0.401000       0.421225
                         21       1    1fz3              0.401000       0.188378

                         22       1    1gx4              0.357000       0.065505
                         22       1    1gx3y             0.357000       0.173309
                         22       1    1gx3z             0.357000       0.173309
                         22       1    1gx2y2            0.357000       0.223741
                         22       1    1gx2yz            0.357000       0.387532
                         22       1    1gx2z2            0.357000       0.223741
                         22       1    1gxy3             0.357000       0.173309
                         22       1    1gxy2z            0.357000       0.387532
                         22       1    1gxyz2            0.357000       0.387532
                         22       1    1gxz3             0.357000       0.173309
                         22       1    1gy4              0.357000       0.065505
                         22       1    1gy3z             0.357000       0.173309
                         22       1    1gy2z2            0.357000       0.223741
                         22       1    1gyz3             0.357000       0.173309
                         22       1    1gz4              0.357000       0.065505

     AE Potential information for                                            ALL

       Description:                                       All-electron potential
                                          Krack, Parrinello, PCCP 2, 2105 (2000)

       Gaussian exponent of the core charge distribution:               2.469136
       Electronic configuration (s p d ...):                           6   7   0

  2. Atomic kind: F                                     Number of atoms:       3

     Orbital Basis Set                                                 def2-QZVP

       Number of orbital shell sets:                                          17
       Number of orbital shells:                                              17
       Number of primitive Cartesian functions:                               29
       Number of Cartesian basis functions:                                   72
       Number of spherical basis functions:                                   57
       Norm type:                                                              2

       Normalised Cartesian orbitals:

                        Set   Shell   Orbital            Exponent    Coefficient

                          1       1    1s           132535.973450       0.386108
                                                     19758.112588       0.724649
                                                      4485.199695       1.250455
                                                      1273.815102       2.015188
                                                       418.938312       3.040568
                                                       152.557220       4.212686
                                                        59.821525       5.009443
                                                        24.819077       4.546938

                          2       1    1s              100.744467       2.325033
                                                        30.103728       8.414408

                          3       1    1s               10.814283       4.250191

                          4       1    1s                4.817289       2.317459

                          5       1    1s                1.655933       1.040381

                          6       1    1s                0.648935       0.515301

                          7       1    1s                0.247781       0.250300

                          8       1    1px             240.966541       3.491668
                                                        57.020700       4.618861
                                                        18.126952       5.179649
                                                         6.645740       4.786262
                                                         2.637572       3.245784
                          8       1    1py             240.966541       3.491668
                                                        57.020700       4.618861
                                                        18.126952       5.179649
                                                         6.645740       4.786262
                                                         2.637572       3.245784
                          8       1    1pz             240.966541       3.491668
                                                        57.020700       4.618861
                                                        18.126952       5.179649
                                                         6.645740       4.786262
                                                         2.637572       3.245784

                          9       1    1px               1.063822       1.540019
                          9       1    1py               1.063822       1.540019
                          9       1    1pz               1.063822       1.540019

                         10       1    1px               0.419326       0.480983
                         10       1    1py               0.419326       0.480983
                         10       1    1pz               0.419326       0.480983

                         11       1    1px               0.157476       0.141403
                         11       1    1py               0.157476       0.141403
                         11       1    1pz               0.157476       0.141403

                         12       1    1dx2              5.014000      27.652349
                         12       1    1dxy              5.014000      47.895274
                         12       1    1dxz              5.014000      47.895274
                         12       1    1dy2              5.014000      27.652349
                         12       1    1dyz              5.014000      47.895274
                         12       1    1dz2              5.014000      27.652349

                         13       1    1dx2              1.725000       4.273566
                         13       1    1dxy              1.725000       7.402033
                         13       1    1dxz              1.725000       7.402033
                         13       1    1dy2              1.725000       4.273566
                         13       1    1dyz              1.725000       7.402033
                         13       1    1dz2              1.725000       4.273566

                         14       1    1dx2              0.586000       0.645997
                         14       1    1dxy              0.586000       1.118899
                         14       1    1dxz              0.586000       1.118899
                         14       1    1dy2              0.586000       0.645997
                         14       1    1dyz              0.586000       1.118899
                         14       1    1dz2              0.586000       0.645997

                         15       1    1fx3              3.562000      25.660538
                         15       1    1fx2y             3.562000      57.378707
                         15       1    1fx2z             3.562000      57.378707
                         15       1    1fxy2             3.562000      57.378707
                         15       1    1fxyz             3.562000      99.382837
                         15       1    1fxz2             3.562000      57.378707
                         15       1    1fy3              3.562000      25.660538
                         15       1    1fy2z             3.562000      57.378707
                         15       1    1fyz2             3.562000      57.378707
                         15       1    1fz3              3.562000      25.660538

                         16       1    1fx3              1.148000       2.008277
                         16       1    1fx2y             1.148000       4.490645
                         16       1    1fx2z             1.148000       4.490645
                         16       1    1fxy2             1.148000       4.490645
                         16       1    1fxyz             1.148000       7.778025
                         16       1    1fxz2             1.148000       4.490645
                         16       1    1fy3              1.148000       2.008277
                         16       1    1fy2z             1.148000       4.490645
                         16       1    1fyz2             1.148000       4.490645
                         16       1    1fz3              1.148000       2.008277

                         17       1    1gx4              2.376000      12.023008
                         17       1    1gx3y             2.376000      31.809888
                         17       1    1gx3z             2.376000      31.809888
                         17       1    1gx2y2            2.376000      41.066389
                         17       1    1gx2yz            2.376000      71.129073
                         17       1    1gx2z2            2.376000      41.066389
                         17       1    1gxy3             2.376000      31.809888
                         17       1    1gxy2z            2.376000      71.129073
                         17       1    1gxyz2            2.376000      71.129073
                         17       1    1gxz3             2.376000      31.809888
                         17       1    1gy4              2.376000      12.023008
                         17       1    1gy3z             2.376000      31.809888
                         17       1    1gy2z2            2.376000      41.066389
                         17       1    1gyz3             2.376000      31.809888
                         17       1    1gz4              2.376000      12.023008

     RI Auxiliary Basis Set                                                RI-5Z

       Number of orbital shell sets:                                          39
       Number of orbital shells:                                              39
       Number of primitive Cartesian functions:                               39
       Number of Cartesian basis functions:                                  287
       Number of spherical basis functions:                                  193
       Norm type:                                                              2

       Normalised Cartesian orbitals:

                        Set   Shell   Orbital            Exponent    Coefficient

                          1       1    1s              645.424000      91.262829

                          2       1    1s              138.618000      28.792198

                          3       1    1s               38.729500      11.064748

                          4       1    1s               21.723600       7.171482

                          5       1    1s                7.480350       3.223677

                          6       1    1s                4.284400       2.122402

                          7       1    1s                2.601990       1.460123

                          8       1    1s                1.340780       0.888031

                          9       1    1s                0.603875       0.488225

                         10       1    1s                0.299915       0.288841

                         11       1    1px             118.066000     554.748517
                         11       1    1py             118.066000     554.748517
                         11       1    1pz             118.066000     554.748517

                         12       1    1px              32.033700     108.629797
                         12       1    1py              32.033700     108.629797
                         12       1    1pz              32.033700     108.629797

                         13       1    1px              13.592500      37.201827
                         13       1    1py              13.592500      37.201827
                         13       1    1pz              13.592500      37.201827

                         14       1    1px               6.289910      14.198603
                         14       1    1py               6.289910      14.198603
                         14       1    1pz               6.289910      14.198603

                         15       1    1px               3.490790       6.801344
                         15       1    1py               3.490790       6.801344
                         15       1    1pz               3.490790       6.801344

                         16       1    1px               1.639320       2.644051
                         16       1    1py               1.639320       2.644051
                         16       1    1pz               1.639320       2.644051

                         17       1    1px               0.880017       1.214937
                         17       1    1py               0.880017       1.214937
                         17       1    1pz               0.880017       1.214937

                         18       1    1px               0.533003       0.649161
                         18       1    1py               0.533003       0.649161
                         18       1    1pz               0.533003       0.649161

                         19       1    1dx2             27.767600     552.842674
                         19       1    1dxy             27.767600     957.551601
                         19       1    1dxz             27.767600     957.551601
                         19       1    1dy2             27.767600     552.842674
                         19       1    1dyz             27.767600     957.551601
                         19       1    1dz2             27.767600     552.842674

                         20       1    1dx2              8.880760      75.196424
                         20       1    1dxy              8.880760     130.244027
                         20       1    1dxz              8.880760     130.244027
                         20       1    1dy2              8.880760      75.196424
                         20       1    1dyz              8.880760     130.244027
                         20       1    1dz2              8.880760      75.196424

                         21       1    1dx2              5.495020      32.460536
                         21       1    1dxy              5.495020      56.223298
                         21       1    1dxz              5.495020      56.223298
                         21       1    1dy2              5.495020      32.460536
                         21       1    1dyz              5.495020      56.223298
                         21       1    1dz2              5.495020      32.460536

                         22       1    1dx2              2.971120      11.066742
                         22       1    1dxy              2.971120      19.168160
                         22       1    1dxz              2.971120      19.168160
                         22       1    1dy2              2.971120      11.066742
                         22       1    1dyz              2.971120      19.168160
                         22       1    1dz2              2.971120      11.066742

                         23       1    1dx2              1.819720       4.692642
                         23       1    1dxy              1.819720       8.127895
                         23       1    1dxz              1.819720       8.127895
                         23       1    1dy2              1.819720       4.692642
                         23       1    1dyz              1.819720       8.127895
                         23       1    1dz2              1.819720       4.692642

                         24       1    1dx2              0.890528       1.343670
                         24       1    1dxy              0.890528       2.327305
                         24       1    1dxz              0.890528       2.327305
                         24       1    1dy2              0.890528       1.343670
                         24       1    1dyz              0.890528       2.327305
                         24       1    1dz2              0.890528       1.343670

                         25       1    1dx2              0.367580       0.285611
                         25       1    1dxy              0.367580       0.494693
                         25       1    1dxz              0.367580       0.494693
                         25       1    1dy2              0.367580       0.285611
                         25       1    1dyz              0.367580       0.494693
                         25       1    1dz2              0.367580       0.285611

                         26       1    1fx3             18.500300    1044.976886
                         26       1    1fx2y            18.500300    2336.639352
                         26       1    1fx2z            18.500300    2336.639352
                         26       1    1fxy2            18.500300    2336.639352
                         26       1    1fxyz            18.500300    4047.178077
                         26       1    1fxz2            18.500300    2336.639352
                         26       1    1fy3             18.500300    1044.976886
                         26       1    1fy2z            18.500300    2336.639352
                         26       1    1fyz2            18.500300    2336.639352
                         26       1    1fz3             18.500300    1044.976886

                         27       1    1fx3              8.608610     186.876105
                         27       1    1fx2y             8.608610     417.867675
                         27       1    1fx2z             8.608610     417.867675
                         27       1    1fxy2             8.608610     417.867675
                         27       1    1fxyz             8.608610     723.768044
                         27       1    1fxz2             8.608610     417.867675
                         27       1    1fy3              8.608610     186.876105
                         27       1    1fy2z             8.608610     417.867675
                         27       1    1fyz2             8.608610     417.867675
                         27       1    1fz3              8.608610     186.876105

                         28       1    1fx3              4.943880      53.654638
                         28       1    1fx2y             4.943880     119.975419
                         28       1    1fx2z             4.943880     119.975419
                         28       1    1fxy2             4.943880     119.975419
                         28       1    1fxyz             4.943880     207.803521
                         28       1    1fxz2             4.943880     119.975419
                         28       1    1fy3              4.943880      53.654638
                         28       1    1fy2z             4.943880     119.975419
                         28       1    1fyz2             4.943880     119.975419
                         28       1    1fz3              4.943880      53.654638

                         29       1    1fx3              2.814490      15.104411
                         29       1    1fx2y             2.814490      33.774490
                         29       1    1fx2z             2.814490      33.774490
                         29       1    1fxy2             2.814490      33.774490
                         29       1    1fxyz             2.814490      58.499133
                         29       1    1fxz2             2.814490      33.774490
                         29       1    1fy3              2.814490      15.104411
                         29       1    1fy2z             2.814490      33.774490
                         29       1    1fyz2             2.814490      33.774490
                         29       1    1fz3              2.814490      15.104411

                         30       1    1fx3              1.581520       4.129263
                         30       1    1fx2y             1.581520       9.233312
                         30       1    1fx2z             1.581520       9.233312
                         30       1    1fxy2             1.581520       9.233312
                         30       1    1fxyz             1.581520      15.992565
                         30       1    1fxz2             1.581520       9.233312
                         30       1    1fy3              1.581520       4.129263
                         30       1    1fy2z             1.581520       9.233312
[...]
 -                                                                             -
 -------------------------------------------------------------------------------
 COUNTER                                    TOTAL       BLAS       SMM       ACC
 flops    70 x    70 x    70               686000     100.0%      0.0%      0.0%
 flops    57 x    57 x    70               909720     100.0%      0.0%      0.0%
 flops    57 x   127 x    70              1013460     100.0%      0.0%      0.0%
 flops    57 x    70 x    70              1675800     100.0%      0.0%      0.0%
 flops    70 x    70 x    57              1675800     100.0%      0.0%      0.0%
 flops    70 x    57 x    20              1755600     100.0%      0.0%      0.0%
 flops    70 x    70 x    20              2156000     100.0%      0.0%      0.0%
 flops    57 x    57 x    57              2222316     100.0%      0.0%      0.0%
 flops    57 x   127 x    57              2475738     100.0%      0.0%      0.0%
 flops   184 x    57 x    70              2936640     100.0%      0.0%      0.0%
 flops   184 x   127 x    70              3271520     100.0%      0.0%      0.0%
 flops    57 x    70 x    20              3511200     100.0%      0.0%      0.0%
 flops    57 x    70 x    57              4093740     100.0%      0.0%      0.0%
 flops   184 x    57 x    57              7173792     100.0%      0.0%      0.0%
 flops   184 x   127 x    57              7991856     100.0%      0.0%      0.0%
 flops    57 x    57 x    20              8577360     100.0%      0.0%      0.0%
 flops   230 x   230 x   230            340676000     100.0%      0.0%      0.0%
 flops   230 x   193 x   230            857614800     100.0%      0.0%      0.0%
 flops   193 x   230 x   230            857614800     100.0%      0.0%      0.0%
 flops   230 x   230 x   193            857614800     100.0%      0.0%      0.0%
 flops   193 x    57 x    70           1724956800     100.0%      0.0%      0.0%
 flops   193 x   127 x    70           1921662400     100.0%      0.0%      0.0%
 flops   193 x   193 x   230           2158952040     100.0%      0.0%      0.0%
 flops   230 x   193 x   193           2158952040     100.0%      0.0%      0.0%
 flops   193 x   230 x   193           2158952040     100.0%      0.0%      0.0%
 flops   230 x   230 x  1519           2249942800     100.0%      0.0%      0.0%
 flops   193 x    57 x   230           2833857600     100.0%      0.0%      0.0%
 flops   193 x   127 x   230           3157016800     100.0%      0.0%      0.0%
 flops    70 x  1470 x    70           3759966000     100.0%      0.0%      0.0%
 flops   193 x    57 x    57           4213823040     100.0%      0.0%      0.0%
 flops   193 x   127 x    57           4694346720     100.0%      0.0%      0.0%
 flops   193 x   193 x   193           5434927092     100.0%      0.0%      0.0%
 flops   616 x    57 x    70           5505561600     100.0%      0.0%      0.0%
 flops   230 x   193 x  1519           5663986440     100.0%      0.0%      0.0%
 flops   193 x   230 x  1519           5663986440     100.0%      0.0%      0.0%
 flops   616 x   127 x    70           6133388800     100.0%      0.0%      0.0%
 flops   193 x    57 x   193           7133928480     100.0%      0.0%      0.0%
 flops   193 x   127 x   193           7947446640     100.0%      0.0%      0.0%
 flops   230 x   230 x  1488           8816102400     100.0%      0.0%      0.0%
 flops    57 x  1470 x    70           8868333600     100.0%      0.0%      0.0%
 flops   616 x    57 x   230           9044851200     100.0%      0.0%      0.0%
 flops    70 x  1197 x    70           9185059800     100.0%      0.0%      0.0%
 flops    70 x  1470 x    57           9185059800     100.0%      0.0%      0.0%
 flops   616 x   127 x   230          10076281600     100.0%      0.0%      0.0%
 flops    70 x  1400 x    70          12334280000     100.0%      0.0%      0.0%
 flops   616 x    57 x    57          13449300480     100.0%      0.0%      0.0%
 flops   193 x   193 x  1519          14258470212     100.0%      0.0%      0.0%
 flops   616 x   127 x    57          14982992640     100.0%      0.0%      0.0%
 flops   230 x   230 x  1470          15241548000     100.0%      0.0%      0.0%
 flops    57 x  1197 x    70          21664072080     100.0%      0.0%      0.0%
 flops    57 x  1470 x    57          21664072080     100.0%      0.0%      0.0%
 flops   230 x   193 x  1488          22193579520     100.0%      0.0%      0.0%
 flops   193 x   230 x  1488          22193579520     100.0%      0.0%      0.0%
 flops    70 x  1197 x    57          22437788940     100.0%      0.0%      0.0%
 flops   616 x    57 x   193          22769429760     100.0%      0.0%      0.0%
 flops   616 x   127 x   193          25365943680     100.0%      0.0%      0.0%
 flops    57 x  1400 x    70          29091888000     100.0%      0.0%      0.0%
 flops    70 x  1140 x    70          30130884000     100.0%      0.0%      0.0%
 flops    70 x  1400 x    57          30130884000     100.0%      0.0%      0.0%
 flops   230 x   193 x  1470          38368940400     100.0%      0.0%      0.0%
 flops   193 x   230 x  1470          38368940400     100.0%      0.0%      0.0%
 flops    57 x  1197 x    57          52922233224     100.0%      0.0%      0.0%
 flops   193 x   193 x  1488          55869924096     100.0%      0.0%      0.0%
 flops   230 x   230 x  1440          59721984000     100.0%      0.0%      0.0%
 flops    57 x  1140 x    70          71067326400     100.0%      0.0%      0.0%
 flops    57 x  1400 x    57          71067326400     100.0%      0.0%      0.0%
 flops    70 x  1140 x    57          73605445200     100.0%      0.0%      0.0%
 flops   193 x   193 x  1470          96589636920     100.0%      0.0%      0.0%
 flops   230 x   193 x  1440         150343603200     100.0%      0.0%      0.0%
 flops   193 x   230 x  1440         150343603200     100.0%      0.0%      0.0%
 flops    57 x  1140 x    57         173607325920     100.0%      0.0%      0.0%
 flops   193 x   193 x  1440         378473679360     100.0%      0.0%      0.0%
 flops inhomo. stacks                           0       0.0%      0.0%      0.0%
 flops total                         1.860916E+12     100.0%      0.0%      0.0%
 flops max/rank                    104.712330E+09     100.0%      0.0%      0.0%
 matmuls inhomo. stacks                         0       0.0%      0.0%      0.0%
 matmuls total                             102486     100.0%      0.0%      0.0%
 number of processed stacks                 32327     100.0%      0.0%      0.0%
 average stack size                                     3.2       0.0       0.0
 marketing flops                     1.876983E+12
 -------------------------------------------------------------------------------
 # multiplications                            910
 max memory usage/rank             748.367872E+06
 # max total images/rank                        5
 # max 3D layers                                1
 # MPI messages exchanged                 1144440
 MPI messages size (bytes):
  total size                        24.040956E+09
  min size                           0.000000E+00
  max size                           1.133440E+06
  average size                      21.006742E+03
 MPI breakdown and total messages size (bytes):
             size <=      128             1051719                        0
       128 < size <=     8192                   0                        0
      8192 < size <=    32768               13842                377265264
     32768 < size <=   131072               33687               2913758664
    131072 < size <=  4194304               45192              20750138304
   4194304 < size <= 16777216                   0                        0
  16777216 < size                               0                        0
 -------------------------------------------------------------------------------

 *** WARNING in dbcsr_mm.F:278 :: Using a non-square number of MPI ranks ***
 *** might lead to poor performance. Used ranks: 40 Suggested: 36 81     ***

 -------------------------------------------------------------------------------
 -                                                                             -
 -                      DBCSR MESSAGE PASSING PERFORMANCE                      -
 -                                                                             -
 -------------------------------------------------------------------------------

 ROUTINE             CALLS      AVE VOLUME [Bytes]
 MP_Group               45
 MP_Bcast               73                     12.
 MP_Allreduce         5280                      9.
 MP_Alltoall          2896                  84787.
 MP_Wait             63456
 MP_ISend            62652                  43009.
 MP_IRecv            62602                  22697.
 MP_Memory           98022
 -------------------------------------------------------------------------------


 MEMORY| Estimated peak process memory [MiB]                                 694

 -------------------------------------------------------------------------------
 ----                             MULTIGRID INFO                            ----
 -------------------------------------------------------------------------------
 count for grid        1:         688211          cutoff [a.u.]          200.00
 count for grid        2:          70887          cutoff [a.u.]           66.67
 count for grid        3:          38088          cutoff [a.u.]           22.22
 count for grid        4:          13832          cutoff [a.u.]            7.41
 total gridlevel count  :         811018

 -------------------------------------------------------------------------------
 -                                                                             -
 -                         MESSAGE PASSING PERFORMANCE                         -
 -                                                                             -
 -------------------------------------------------------------------------------

 ROUTINE             CALLS      AVE VOLUME [Bytes]
 MP_Group                5
 MP_Bcast              270                2030835.
 MP_Allreduce          645                 166474.
 MP_Sync                82
 MP_Alltoall           323                5904436.
 MP_ISendRecv         2028                  47964.
 MP_Wait              6018
 MP_comm_split          20
 MP_ISend             8208                 151472.
 MP_IRecv             7246                 300962.
 MP_Recv                 9                   3856.
 -------------------------------------------------------------------------------


 -------------------------------------------------------------------------------
 -                                                                             -
 -                           R E F E R E N C E S                               -
 -                                                                             -
 -------------------------------------------------------------------------------
 
 CP2K version 7.0 (Development Version), the CP2K developers group (2018).
 CP2K is freely available from https://www.cp2k.org/ .

 Schuett, Ole; Messmer, Peter; Hutter, Juerg; VandeVondele, Joost. 
 Electronic Structure Calculations on Graphics Processing Units, John Wiley & Sons, Ltd, 173-190 (2016). 
 GPU-Accelerated Sparse Matrix-Matrix Multiplication for Linear Scaling Density Functional Theory.
 https://dx.doi.org/10.1002/9781118670712.ch8


 Del Ben, M; Schuett, O; Wentz, T; Messmer, P; Hutter, J;
 VandeVondele, J. 
 COMPUTER PHYSICS COMMUNICATIONS, 187, 120-129 (2015). 
 Enabling simulation at the fifth rung of DFT: Large scale RPA
 calculations with excellent time to solution.
 https://dx.doi.org/10.1016/j.cpc.2014.10.021


 Borstnik, U; VandeVondele, J; Weber, V; Hutter, J. 
 PARALLEL COMPUTING, 40 (5-6), 47-58 (2014). 
 Sparse matrix multiplication: The distributed block-compressed sparse
 row library.
 https://dx.doi.org/10.1016/j.parco.2014.03.012


 Hutter, J; Iannuzzi, M; Schiffmann, F; VandeVondele, J. 
 WILEY INTERDISCIPLINARY REVIEWS-COMPUTATIONAL MOLECULAR SCIENCE, 4 (1), 15-25 (2014). 
 CP2K: atomistic simulations of condensed matter systems.
 https://dx.doi.org/10.1002/wcms.1159


 Del Ben, M; Hutter, J; VandeVondele, J. 
 JOURNAL OF CHEMICAL THEORY AND COMPUTATION, 9 (6), 2654-2671 (2013). 
 Electron Correlation in the Condensed Phase from a Resolution of
 Identity Approach Based on the Gaussian and Plane Waves Scheme.
 https://dx.doi.org/10.1021/ct4002202


 Del Ben, M; Hutter, J; VandeVondele, J. 
 JOURNAL OF CHEMICAL THEORY AND COMPUTATION, 8 (11), 4177-4188 (2012). 
 Second-Order Moller-Plesset Perturbation Theory in the Condensed Phase:
 An Efficient and Massively Parallel Gaussian and Plane Waves Approach.
 https://dx.doi.org/10.1021/ct300531w


 Guidon, M; Hutter, J; VandeVondele, J. 
 JOURNAL OF CHEMICAL THEORY AND COMPUTATION, 5 (11), 3010-3021 (2009). 
 Robust Periodic Hartree-Fock Exchange for Large-Scale Simulations Using
 Gaussian Basis Sets.
 https://dx.doi.org/10.1021/ct900494g


 Guidon, M; Schiffmann, F; Hutter, J; VandeVondele, J. 
 JOURNAL OF CHEMICAL PHYSICS, 128 (21), 214104 (2008). 
 Ab initio molecular dynamics using hybrid density functionals.
 https://dx.doi.org/10.1063/1.2931945


 Frigo, M; Johnson, SG. 
 PROCEEDINGS OF THE IEEE, 93 (2), 216-231 (2005). 
 The design and implementation of FFTW3.
 https://dx.doi.org/10.1109/JPROC.2004.840301


 Lippert, G; Hutter, J; Parrinello, M. 
 THEORETICAL CHEMISTRY ACCOUNTS, 103 (2), 124-140 (1999). 
 The Gaussian and augmented-plane-wave density functional method for ab
 initio molecular dynamics simulations.
 https://dx.doi.org/10.1007/s002140050523


 Krack, M; Parrinello, M. 
 PHYSICAL CHEMISTRY CHEMICAL PHYSICS, 2 (10), 2105-2112 (2000). 
 All-electron ab-initio molecular dynamics.
 https://dx.doi.org/10.1039/b001167n


 Martyna, GJ; Tuckerman, ME. 
 JOURNAL OF CHEMICAL PHYSICS, 110 (6), 2810-2821 (1999). 
 A reciprocal space based method for treating long range interactions in
 ab initio and force-field-based calculations in clusters.
 https://dx.doi.org/10.1063/1.477923


 Perdew, JP; Burke, K; Ernzerhof, M. 
 PHYSICAL REVIEW LETTERS, 77 (18), 3865-3868 (1996). 
 Generalized gradient approximation made simple.
 https://dx.doi.org/10.1103/PhysRevLett.77.3865


 -------------------------------------------------------------------------------
 -                                                                             -
 -                                T I M I N G                                  -
 -                                                                             -
 -------------------------------------------------------------------------------
 SUBROUTINE                       CALLS  ASD         SELF TIME        TOTAL TIME
                                MAXIMUM       AVERAGE  MAXIMUM  AVERAGE  MAXIMUM
 CP2K                                 1  1.0    0.252    0.273  485.976  485.992
 qs_energies                          1  2.0    0.000    0.001  481.997  482.007
 mp2_main                             1  3.0    0.001    0.017  419.817  419.831
 mp2_gpw_main                         1  4.0    0.001    0.002  380.909  380.916
 mp2_ri_gpw_compute_in                1  5.0    0.000    0.000  154.120  213.430
 compute_3c_overlap_int               1  6.0   49.755   69.318  152.067  211.382
 rpa_ri_compute_en                    1  5.0    0.000    0.011  166.865  166.872
 rpa_num_int                          1  6.0    0.002    0.019  165.914  165.925
 mp_comm_split_direct                 8  6.6   60.551  157.111   60.551  157.111
 create_dbcsr_matrices_im_time        1  5.0    0.495    0.505   59.921  156.358
 compute_3c_overlap_int_put_dbc  110775  7.0  100.786  141.864  100.786  141.864
 dbcsr_multiply_generic             910  9.9    0.075    0.115  121.892  128.602
 multiply_cannon                    910 10.9    0.227    0.290  109.516  119.888
 compute_mat_P_omega                  1  7.0    0.001    0.001  110.964  110.965
 multiply_cannon_multrec          17383 11.9   91.445  106.357   92.985  106.586
 compute_mat_P_omega_calc_P          14  8.0    0.001    0.001   93.402   94.107
 scf_env_do_scf                       1  3.0    0.000    0.000   60.362   60.363
 scf_env_do_scf_inner_loop           11  4.0    0.002    0.017   60.362   60.363
 qs_ks_build_kohn_sham_matrix        12  6.8    0.005    0.025   37.647   37.713
 compute_vec_Sigma_x_minus_vxc_       1  4.0    0.000    0.009   37.321   37.331
 qs_ks_update_qs_env                 11  5.0    0.000    0.000   36.007   36.038
 rebuild_ks_matrix                   11  6.0    0.000    0.000   35.959   36.013
 integrate_four_center                1  5.0    0.004    0.013   35.623   35.624
 GW_postprocessing                    1  7.0    0.000    0.000   30.704   30.705
 compute_self_energy_im_time_gw       1  8.0    0.003    0.005   30.701   30.703
 mp_waitall_1                     65938 13.3   14.985   25.056   14.985   25.056
 multiply_cannon_metrocomm3       17383 11.9    0.036    0.049   10.752   23.587
 mp_sum_d                          1165  6.7   13.123   20.802   13.123   20.802
 multiply_cannon_metrocomm1       17383 11.9    0.017    0.025    2.971   19.324
 calc_screening_functions             1  6.0   10.452   12.110   16.978   19.250
 mp_sum_l                          4512 10.9    8.885   17.346    8.885   17.346
 pw_transfer                        249  9.5    0.033    0.064   16.210   17.034
 qs_scf_new_mos                      11  5.0    0.000    0.000   16.940   16.948
 fft_wrap_pw1pw2                    211 10.6    0.004    0.022   15.997   16.892
 fft3d_ps                           211 12.6    4.274    4.819   12.661   15.961
 compute_self_energy_im_time_gw     280  9.0    0.002    0.004   12.788   15.821
 fft_wrap_pw1pw2_200                138 11.7    0.732    0.952   14.603   15.429
 mp_sync                             82  8.7    7.172   14.412    7.172   14.412
 mp_alltoall_z22v                   211 14.6    7.228   14.080    7.228   14.080
 dbcsr_trace_a_b_d                  584  9.9    0.013    0.191    5.985   13.295
 integrate_four_center_load           1  6.0    0.000    0.000    3.501   13.233
 hfx_load_balance                     1  7.0    0.000    0.001    3.501   13.233
 powell_optimize                1928377  7.0   11.310   12.971   11.310   12.971
 hfx_load_balance_range               1  8.0    0.003    0.051    3.213   12.945
 compute_self_energy_im_time_gw     280  9.0    0.001    0.008    5.623   12.922
 rs_pw_transfer                     122  9.4    0.004    0.025   11.891   12.894
 eigensolver                         12  5.8    0.001    0.001   12.496   12.511
 cp_fm_syevd                         12  6.8    0.000    0.000   12.389   12.400
 copy_dbcsr_to_fm                    39  6.9    0.001    0.001   11.509   12.264
 dbcsr_complete_redistribute        123  9.4    0.016    0.096   11.258   11.354
 qs_vxc_create                       12  7.8    0.000    0.001   11.100   11.135
 xc_vxc_pw_create                    11  9.0    0.096    0.129   11.099   11.135
 calc_pair_dist_radii                 1  6.0    4.114    4.844    8.898   10.662
 mp_waitany                        3452 11.3    6.973   10.455    6.973   10.455
 -------------------------------------------------------------------------------

 The number of warnings for this run is : 3
 
 -------------------------------------------------------------------------------
  **** **** ******  **  PROGRAM ENDED AT                 2019-05-31 17:30:35.171
 ***** ** ***  *** **   PROGRAM RAN ON                                    tcopt4
 **    ****   ******    PROGRAM RAN BY                                   wilhelm
 ***** **    ** ** **   PROGRAM PROCESS ID                                 83823
  **** **  *******  **  PROGRAM STOPPED IN /data/wilhelm/2_job_test/11_GW100/3_c
                                           alcs/57_AlF3
