 DBCSR| CPU Multiplication driver                                           BLAS
 DBCSR| Multrec recursion limit                                              512
 DBCSR| Multiplication stack size                                           1000
 DBCSR| Maximum elements for images                                    UNLIMITED
 DBCSR| Multiplicative factor virtual images                                   1
 DBCSR| Use multiplication densification                                       T
 DBCSR| Multiplication size stacks                                             3
 DBCSR| Number of 3D layers                                               SINGLE
 DBCSR| Use MPI memory allocation                                              T
 DBCSR| Use RMA algorithm                                                      F
 DBCSR| Use Communication thread                                               T
 DBCSR| Communication thread load                                             87


  **** **** ******  **  PROGRAM STARTED AT               2019-06-08 12:58:47.918
 ***** ** ***  *** **   PROGRAM STARTED ON                                tcopt4
 **    ****   ******    PROGRAM STARTED BY                               wilhelm
 ***** **    ** ** **   PROGRAM PROCESS ID                                145151
  **** **  *******  **  PROGRAM STARTED IN /data/wilhelm/2_job_test/11_GW100/3_c
                                           alcs/57_AlF3

 CP2K| version string:                    CP2K version 7.0 (Development Version)
 CP2K| source code revision number:                                  git:bc2813a
 CP2K| cp2kflags: libint fftw3 libxc pexsi elpa=201705 parallel mpi3 scalapack q
 CP2K|            uip libderiv_max_am1=5 libint_max_am=6
 CP2K| is freely available from                            https://www.cp2k.org/
 CP2K| Program compiled at                         Sun Jun  2 14:38:23 CEST 2019
 CP2K| Program compiled on                                                tcopt4
 CP2K| Program compiled for                            local_valgrind_March_2019
 CP2K| Data directory path              /data/wilhelm/1_git_repository/cp2k/data
 CP2K| Input file name                                                    GW.inp

 GLOBAL| Force Environment number                                              1
 GLOBAL| Basis set file name                              BASIS_def2_QZVP_RI_ALL
 GLOBAL| Potential file name                                           POTENTIAL
 GLOBAL| MM Potential file name                                     MM_POTENTIAL
 GLOBAL| Coordinate file name                                        57_AlF3.xyz
 GLOBAL| Method name                                                        CP2K
 GLOBAL| Project name                                                   ALL_ELEC
 GLOBAL| Preferred FFT library                                             FFTW3
 GLOBAL| Preferred diagonalization lib.                                       SL
 GLOBAL| Run type                                                         ENERGY
 GLOBAL| All-to-all communication in single precision                          F
 GLOBAL| FFTs using library dependent lengths                                  F
 GLOBAL| Global print level                                               MEDIUM
 GLOBAL| MPI I/O enabled                                                       T
 GLOBAL| Total number of message passing processes                            24
 GLOBAL| Number of threads for this process                                    1
 GLOBAL| This output is from process                                           0
 GLOBAL| CPU model name :  Intel(R) Xeon(R) CPU E5-2697 v3 @ 2.60GHz

 MEMORY| system memory details [Kb]
 MEMORY|                        rank 0           min           max       average
 MEMORY| MemTotal            396954008     396954008     396954008     396954008
 MEMORY| MemFree             339905564     339905564     339905564     339905564
 MEMORY| Buffers                377556        377556        377556        377556
 MEMORY| Cached               42959324      42959324      42959324      42959324
 MEMORY| Slab                  1478400       1478400       1478400       1478400
 MEMORY| SReclaimable          1338736       1338736       1338736       1338736
 MEMORY| MemLikelyFree       384581180     384581180     384581180     384581180


 *** Fundamental physical constants (SI units) ***

 *** Literature: B. J. Mohr and B. N. Taylor,
 ***             CODATA recommended values of the fundamental physical
 ***             constants: 2006, Web Version 5.1
 ***             http://physics.nist.gov/constants

 Speed of light in vacuum [m/s]                             2.99792458000000E+08
 Magnetic constant or permeability of vacuum [N/A**2]       1.25663706143592E-06
 Electric constant or permittivity of vacuum [F/m]          8.85418781762039E-12
 Planck constant (h) [J*s]                                  6.62606896000000E-34
 Planck constant (h-bar) [J*s]                              1.05457162825177E-34
 Elementary charge [C]                                      1.60217648700000E-19
 Electron mass [kg]                                         9.10938215000000E-31
 Electron g factor [ ]                                     -2.00231930436220E+00
 Proton mass [kg]                                           1.67262163700000E-27
 Fine-structure constant                                    7.29735253760000E-03
 Rydberg constant [1/m]                                     1.09737315685270E+07
 Avogadro constant [1/mol]                                  6.02214179000000E+23
 Boltzmann constant [J/K]                                   1.38065040000000E-23
 Atomic mass unit [kg]                                      1.66053878200000E-27
 Bohr radius [m]                                            5.29177208590000E-11

 *** Conversion factors ***

 [u] -> [a.u.]                                              1.82288848426455E+03
 [Angstrom] -> [Bohr] = [a.u.]                              1.88972613288564E+00
 [a.u.] = [Bohr] -> [Angstrom]                              5.29177208590000E-01
 [a.u.] -> [s]                                              2.41888432650478E-17
 [a.u.] -> [fs]                                             2.41888432650478E-02
 [a.u.] -> [J]                                              4.35974393937059E-18
 [a.u.] -> [N]                                              8.23872205491840E-08
 [a.u.] -> [K]                                              3.15774647902944E+05
 [a.u.] -> [kJ/mol]                                         2.62549961709828E+03
 [a.u.] -> [kcal/mol]                                       6.27509468713739E+02
 [a.u.] -> [Pa]                                             2.94210107994716E+13
 [a.u.] -> [bar]                                            2.94210107994716E+08
 [a.u.] -> [atm]                                            2.90362800883016E+08
 [a.u.] -> [eV]                                             2.72113838565563E+01
 [a.u.] -> [Hz]                                             6.57968392072181E+15
 [a.u.] -> [1/cm] (wave numbers)                            2.19474631370540E+05
 [a.u./Bohr**2] -> [1/cm]                                   5.14048714338585E+03
 

 CELL_TOP| Volume [angstrom^3]:                                         4096.000
 CELL_TOP| Vector a [angstrom    16.000     0.000     0.000    |a| =      16.000
 CELL_TOP| Vector b [angstrom     0.000    16.000     0.000    |b| =      16.000
 CELL_TOP| Vector c [angstrom     0.000     0.000    16.000    |c| =      16.000
 CELL_TOP| Angle (b,c), alpha [degree]:                                   90.000
 CELL_TOP| Angle (a,c), beta  [degree]:                                   90.000
 CELL_TOP| Angle (a,b), gamma [degree]:                                   90.000
 CELL_TOP| Numerically orthorhombic:                                         YES

 GENERATE|  Preliminary Number of Bonds generated:                             0
 GENERATE|  Achieved consistency in connectivity generation.

 CELL| Volume [angstrom^3]:                                             4096.000
 CELL| Vector a [angstrom]:      16.000     0.000     0.000    |a| =      16.000
 CELL| Vector b [angstrom]:       0.000    16.000     0.000    |b| =      16.000
 CELL| Vector c [angstrom]:       0.000     0.000    16.000    |c| =      16.000
 CELL| Angle (b,c), alpha [degree]:                                       90.000
 CELL| Angle (a,c), beta  [degree]:                                       90.000
 CELL| Angle (a,b), gamma [degree]:                                       90.000
 CELL| Numerically orthorhombic:                                             YES

 CELL_REF| Volume [angstrom^3]:                                         4096.000
 CELL_REF| Vector a [angstrom    16.000     0.000     0.000    |a| =      16.000
 CELL_REF| Vector b [angstrom     0.000    16.000     0.000    |b| =      16.000
 CELL_REF| Vector c [angstrom     0.000     0.000    16.000    |c| =      16.000
 CELL_REF| Angle (b,c), alpha [degree]:                                   90.000
 CELL_REF| Angle (a,c), beta  [degree]:                                   90.000
 CELL_REF| Angle (a,b), gamma [degree]:                                   90.000
 CELL_REF| Numerically orthorhombic:                                         YES

 *******************************************************************************
 *******************************************************************************
 **                                                                           **
 **     #####                         ##              ##                      **
 **    ##   ##            ##          ##              ##                      **
 **   ##     ##                       ##            ######                    **
 **   ##     ##  ##   ##  ##   #####  ##  ##   ####   ##    #####    #####    **
 **   ##     ##  ##   ##  ##  ##      ## ##   ##      ##   ##   ##  ##   ##   **
 **   ##  ## ##  ##   ##  ##  ##      ####     ###    ##   ######   ######    **
 **    ##  ###   ##   ##  ##  ##      ## ##      ##   ##   ##       ##        **
 **     #######   #####   ##   #####  ##  ##  ####    ##    #####   ##        **
 **           ##                                                    ##        **
 **                                                                           **
 **                                                ... make the atoms dance   **
 **                                                                           **
 **            Copyright (C) by CP2K developers group (2000 - 2019)           **
 **                                                                           **
 *******************************************************************************

 DFT| Spin restricted Kohn-Sham (RKS) calculation                            RKS
 DFT| Multiplicity                                                             1
 DFT| Number of spin states                                                    1
 DFT| Charge                                                                   0
 DFT| Self-interaction correction (SIC)                                       NO
 DFT| Cutoffs: density                                              1.000000E-10
 DFT|          gradient                                             1.000000E-10
 DFT|          tau                                                  1.000000E-10
 DFT|          cutoff_smoothing_range                               0.000000E+00
 DFT| XC density smoothing                                                  NONE
 DFT| XC derivatives                                                          PW
 FUNCTIONAL| ROUTINE=NEW
 FUNCTIONAL| PBE:
 FUNCTIONAL| J.P.Perdew, K.Burke, M.Ernzerhof, Phys. Rev. Letter, vol. 77, n 18,
 FUNCTIONAL|  pp. 3865-3868, (1996){spin unpolarized}                           

 QS| Method:                                                                GAPW
 QS| Density plane wave grid type                        NON-SPHERICAL FULLSPACE
 QS| Number of grid levels:                                                    4
 QS| Density cutoff [a.u.]:                                                200.0
 QS| Multi grid cutoff [a.u.]: 1) grid level                               200.0
 QS|                           2) grid level                                66.7
 QS|                           3) grid level                                22.2
 QS|                           4) grid level                                 7.4
 QS| Grid level progression factor:                                          3.0
 QS| Relative density cutoff [a.u.]:                                        25.0
 QS| Consistent realspace mapping and integration 
 QS| Interaction thresholds: eps_pgf_orb:                                1.0E-05
 QS|                         eps_filter_matrix:                          0.0E+00
 QS|                         eps_core_charge:                            1.0E-12
 QS|                         eps_rho_gspace:                             1.0E-10
 QS|                         eps_rho_rspace:                             1.0E-10
 QS|                         eps_gvg_rspace:                             1.0E-05
 QS|                         eps_ppl:                                    1.0E-02
 QS|                         eps_ppnl:                                   1.0E-07
 QS| GAPW|                   eps_fit:                                    1.0E-04
 QS| GAPW|                   eps_iso:                                    1.0E-12
 QS| GAPW|                   eps_svd:                                    1.0E-08
 QS| GAPW|                   eps_cpc:                                    1.0E-10
 QS| GAPW|   atom-r-grid: quadrature:                 GC_LOG                        
 QS| GAPW|      atom-s-grid:  max l :                                          8
 QS| GAPW|      max_l_rho0 :                                                   2


 ATOMIC KIND INFORMATION

  1. Atomic kind: Al                                    Number of atoms:       1

     Orbital Basis Set                                                 def2-QZVP

       Number of orbital shell sets:                                          22
       Number of orbital shells:                                              22
       Number of primitive Cartesian functions:                               41
       Number of Cartesian basis functions:                                   86
       Number of spherical basis functions:                                   70
       Norm type:                                                              2

       Normalised Cartesian orbitals:

                        Set   Shell   Orbital            Exponent    Coefficient

                          1       1    1s           754550.782650       0.288556
                                                    112999.389220       0.539999
                                                     25715.831759       0.935254
                                                      7283.603028       1.528741
                                                      2376.000880       2.380946
                                                       857.654681       3.516019
                                                       334.389226       4.822930
                                                       138.485047       5.825658
                                                        60.150369       5.630484
                                                        27.127611       3.560570

                          2       1    1s              225.365001       1.100390
                                                        69.341968       3.914378
                                                        26.619336       6.544810

                          3       1    1s               12.349421       4.695102

                          4       1    1s                4.587879       2.234184

                          5       1    1s                2.057134       1.224213

                          6       1    1s                0.908645       0.663294

                          7       1    1s                0.242270       0.246113

                          8       1    1s                0.112481       0.138427

                          9       1    1s                0.048156       0.073266

                         10       1    1px            1489.611952       2.939807
                                                       353.013993       4.217910
                                                       114.407641       5.562533
                                                        43.312186       6.449565
                                                        18.027322       6.370517
                                                         7.967543       4.903357
                                                         3.609040       2.713193
                                                         1.645608       0.981303
                         10       1    1py            1489.611952       2.939807
                                                       353.013993       4.217910
                                                       114.407641       5.562533
                                                        43.312186       6.449565
                                                        18.027322       6.370517
                                                         7.967543       4.903357
                                                         3.609040       2.713193
                                                         1.645608       0.981303
                         10       1    1pz            1489.611952       2.939807
                                                       353.013993       4.217910
                                                       114.407641       5.562533
                                                        43.312186       6.449565
                                                        18.027322       6.370517
                                                         7.967543       4.903357
                                                         3.609040       2.713193
                                                         1.645608       0.981303

                         11       1    1px              34.731187       3.577641
                                                         1.255308      -1.897757
                         11       1    1py              34.731187       3.577641
                                                         1.255308      -1.897757
                         11       1    1pz              34.731187       3.577641
                                                         1.255308      -1.897757

                         12       1    1px               0.736355       0.972298
                         12       1    1py               0.736355       0.972298
                         12       1    1pz               0.736355       0.972298

                         13       1    1px               0.246865       0.248035
                         13       1    1py               0.246865       0.248035
                         13       1    1pz               0.246865       0.248035

                         14       1    1px               0.094822       0.075003
                         14       1    1py               0.094822       0.075003
                         14       1    1pz               0.094822       0.075003

                         15       1    1px               0.036214       0.022518
                         15       1    1py               0.036214       0.022518
                         15       1    1pz               0.036214       0.022518

                         16       1    1dx2              1.970000       5.391695
                         16       1    1dxy              1.970000       9.338690
                         16       1    1dxz              1.970000       9.338690
                         16       1    1dy2              1.970000       5.391695
                         16       1    1dyz              1.970000       9.338690
                         16       1    1dz2              1.970000       5.391695

                         17       1    1dx2              0.437000       0.386591
                         17       1    1dxy              0.437000       0.669596
                         17       1    1dxz              0.437000       0.669596
                         17       1    1dy2              0.437000       0.386591
                         17       1    1dyz              0.437000       0.669596
                         17       1    1dz2              0.437000       0.386591

                         18       1    1dx2              0.195000       0.094182
                         18       1    1dxy              0.195000       0.163129
                         18       1    1dxz              0.195000       0.163129
                         18       1    1dy2              0.195000       0.094182
                         18       1    1dyz              0.195000       0.163129
                         18       1    1dz2              0.195000       0.094182

                         19       1    1dx2              0.080000       0.019807
                         19       1    1dxy              0.080000       0.034307
                         19       1    1dxz              0.080000       0.034307
                         19       1    1dy2              0.080000       0.019807
                         19       1    1dyz              0.080000       0.034307
                         19       1    1dz2              0.080000       0.019807

                         20       1    1fx3              0.154000       0.021871
                         20       1    1fx2y             0.154000       0.048906
                         20       1    1fx2z             0.154000       0.048906
                         20       1    1fxy2             0.154000       0.048906
                         20       1    1fxyz             0.154000       0.084707
                         20       1    1fxz2             0.154000       0.048906
                         20       1    1fy3              0.154000       0.021871
                         20       1    1fy2z             0.154000       0.048906
                         20       1    1fyz2             0.154000       0.048906
                         20       1    1fz3              0.154000       0.021871

                         21       1    1fx3              0.401000       0.188378
                         21       1    1fx2y             0.401000       0.421225
                         21       1    1fx2z             0.401000       0.421225
                         21       1    1fxy2             0.401000       0.421225
                         21       1    1fxyz             0.401000       0.729583
                         21       1    1fxz2             0.401000       0.421225
                         21       1    1fy3              0.401000       0.188378
                         21       1    1fy2z             0.401000       0.421225
                         21       1    1fyz2             0.401000       0.421225
                         21       1    1fz3              0.401000       0.188378

                         22       1    1gx4              0.357000       0.065505
                         22       1    1gx3y             0.357000       0.173309
                         22       1    1gx3z             0.357000       0.173309
                         22       1    1gx2y2            0.357000       0.223741
                         22       1    1gx2yz            0.357000       0.387532
                         22       1    1gx2z2            0.357000       0.223741
                         22       1    1gxy3             0.357000       0.173309
                         22       1    1gxy2z            0.357000       0.387532
                         22       1    1gxyz2            0.357000       0.387532
                         22       1    1gxz3             0.357000       0.173309
                         22       1    1gy4              0.357000       0.065505
                         22       1    1gy3z             0.357000       0.173309
                         22       1    1gy2z2            0.357000       0.223741
                         22       1    1gyz3             0.357000       0.173309
                         22       1    1gz4              0.357000       0.065505

     RI Auxiliary Basis Set                                                RI-5Z

       Number of orbital shell sets:                                          48
       Number of orbital shells:                                              48
       Number of primitive Cartesian functions:                               48
       Number of Cartesian basis functions:                                  335
       Number of spherical basis functions:                                  230
       Norm type:                                                              2

       Normalised Cartesian orbitals:

                        Set   Shell   Orbital            Exponent    Coefficient

                          1       1    1s              622.658000      88.837693

                          2       1    1s              126.723000      26.918551

                          3       1    1s               50.988000      13.599128

                          4       1    1s               16.901500       5.940924

                          5       1    1s                8.596280       3.578022

                          6       1    1s                2.999320       1.624341

                          7       1    1s                1.703290       1.062616

                          8       1    1s                0.793673       0.599296

                          9       1    1s                0.431825       0.379657

                         10       1    1s                0.263767       0.262316

                         11       1    1s                0.167892       0.186932

                         12       1    1s                0.096048       0.122963

                         13       1    1px             181.655000     950.603225
                         13       1    1py             181.655000     950.603225
                         13       1    1pz             181.655000     950.603225

                         14       1    1px              53.046300     204.060506
                         14       1    1py              53.046300     204.060506
                         14       1    1pz              53.046300     204.060506

                         15       1    1px              20.473500      62.076926
                         15       1    1py              20.473500      62.076926
                         15       1    1pz              20.473500      62.076926

                         16       1    1px               8.198240      19.773833
                         16       1    1py               8.198240      19.773833
                         16       1    1pz               8.198240      19.773833

                         17       1    1px               3.995940       8.053113
                         17       1    1py               3.995940       8.053113
                         17       1    1pz               3.995940       8.053113

                         18       1    1px               1.799910       2.971690
                         18       1    1py               1.799910       2.971690
                         18       1    1pz               1.799910       2.971690

                         19       1    1px               0.860716       1.181721
                         19       1    1py               0.860716       1.181721
                         19       1    1pz               0.860716       1.181721

                         20       1    1px               0.540931       0.661253
                         20       1    1py               0.540931       0.661253
                         20       1    1pz               0.540931       0.661253

                         21       1    1px               0.320945       0.344333
                         21       1    1py               0.320945       0.344333
                         21       1    1pz               0.320945       0.344333

                         22       1    1px               0.205576       0.197313
                         22       1    1py               0.205576       0.197313
                         22       1    1pz               0.205576       0.197313

                         23       1    1px               0.097041       0.077203
                         23       1    1py               0.097041       0.077203
                         23       1    1pz               0.097041       0.077203

                         24       1    1dx2             43.013400    1189.093646
                         24       1    1dxy             43.013400    2059.570610
                         24       1    1dxz             43.013400    2059.570610
                         24       1    1dy2             43.013400    1189.093646
                         24       1    1dyz             43.013400    2059.570610
                         24       1    1dz2             43.013400    1189.093646

                         25       1    1dx2             13.065100     147.776967
                         25       1    1dxy             13.065100     255.957215
                         25       1    1dxz             13.065100     255.957215
                         25       1    1dy2             13.065100     147.776967
                         25       1    1dyz             13.065100     255.957215
                         25       1    1dz2             13.065100     147.776967

                         26       1    1dx2              4.528950      23.142226
                         26       1    1dxy              4.528950      40.083511
                         26       1    1dxz              4.528950      40.083511
                         26       1    1dy2              4.528950      23.142226
                         26       1    1dyz              4.528950      40.083511
                         26       1    1dz2              4.528950      23.142226

                         27       1    1dx2              2.005540       5.563067
                         27       1    1dxy              2.005540       9.635514
                         27       1    1dxz              2.005540       9.635514
                         27       1    1dy2              2.005540       5.563067
                         27       1    1dyz              2.005540       9.635514
                         27       1    1dz2              2.005540       5.563067

                         28       1    1dx2              0.850034       1.238577
                         28       1    1dxy              0.850034       2.145278
                         28       1    1dxz              0.850034       2.145278
                         28       1    1dy2              0.850034       1.238577
                         28       1    1dyz              0.850034       2.145278
                         28       1    1dz2              0.850034       1.238577

                         29       1    1dx2              0.484888       0.463748
                         29       1    1dxy              0.484888       0.803235
                         29       1    1dxz              0.484888       0.803235
                         29       1    1dy2              0.484888       0.463748
                         29       1    1dyz              0.484888       0.803235
                         29       1    1dz2              0.484888       0.463748

                         30       1    1dx2              0.319410       0.223367
                         30       1    1dxy              0.319410       0.386883
                         30       1    1dxz              0.319410       0.386883
                         30       1    1dy2              0.319410       0.223367
                         30       1    1dyz              0.319410       0.386883
                         30       1    1dz2              0.319410       0.223367

                         31       1    1dx2              0.209892       0.107128
                         31       1    1dxy              0.209892       0.185551
                         31       1    1dxz              0.209892       0.185551
                         31       1    1dy2              0.209892       0.107128
                         31       1    1dyz              0.209892       0.185551
                         31       1    1dz2              0.209892       0.107128

                         32       1    1dx2              0.120513       0.040571
                         32       1    1dxy              0.120513       0.070272
                         32       1    1dxz              0.120513       0.070272
                         32       1    1dy2              0.120513       0.040571
                         32       1    1dyz              0.120513       0.070272
                         32       1    1dz2              0.120513       0.040571

                         33       1    1fx3              9.082230     210.808232
                         33       1    1fx2y             9.082230     471.381536
                         33       1    1fx2z             9.082230     471.381536
                         33       1    1fxy2             9.082230     471.381536
                         33       1    1fxyz             9.082230     816.456771
                         33       1    1fxz2             9.082230     471.381536
                         33       1    1fy3              9.082230     210.808232
                         33       1    1fy2z             9.082230     471.381536
                         33       1    1fyz2             9.082230     471.381536
                         33       1    1fz3              9.082230     210.808232

                         34       1    1fx3              4.296170      39.118999
                         34       1    1fx2y             4.296170      87.472740
                         34       1    1fx2z             4.296170      87.472740
                         34       1    1fxy2             4.296170      87.472740
                         34       1    1fxyz             4.296170     151.507231
                         34       1    1fxz2             4.296170      87.472740
                         34       1    1fy3              4.296170      39.118999
                         34       1    1fy2z             4.296170      87.472740
                         34       1    1fyz2             4.296170      87.472740
                         34       1    1fz3              4.296170      39.118999

                         35       1    1fx3              1.508090       3.710358
                         35       1    1fx2y             1.508090       8.296612
                         35       1    1fx2z             1.508090       8.296612
                         35       1    1fxy2             1.508090       8.296612
                         35       1    1fxyz             1.508090      14.370154
                         35       1    1fxz2             1.508090       8.296612
                         35       1    1fy3              1.508090       3.710358
                         35       1    1fy2z             1.508090       8.296612
                         35       1    1fyz2             1.508090       8.296612
                         35       1    1fz3              1.508090       3.710358

                         36       1    1fx3              0.747970       0.765938
                         36       1    1fx2y             0.747970       1.712690
                         36       1    1fx2z             0.747970       1.712690
                         36       1    1fxy2             0.747970       1.712690
                         36       1    1fxyz             0.747970       2.966467
                         36       1    1fxz2             0.747970       1.712690
                         36       1    1fy3              0.747970       0.765938
                         36       1    1fy2z             0.747970       1.712690
                         36       1    1fyz2             0.747970       1.712690
                         36       1    1fz3              0.747970       0.765938

                         37       1    1fx3              0.439091       0.231048
                         37       1    1fx2y             0.439091       0.516639
                         37       1    1fx2z             0.439091       0.516639
                         37       1    1fxy2             0.439091       0.516639
                         37       1    1fxyz             0.439091       0.894845
                         37       1    1fxz2             0.439091       0.516639
                         37       1    1fy3              0.439091       0.231048
                         37       1    1fy2z             0.439091       0.516639
                         37       1    1fyz2             0.439091       0.516639
                         37       1    1fz3              0.439091       0.231048

                         38       1    1fx3              0.278218       0.082760
                         38       1    1fx2y             0.278218       0.185057
                         38       1    1fx2z             0.278218       0.185057
                         38       1    1fxy2             0.278218       0.185057
                         38       1    1fxyz             0.278218       0.320529
                         38       1    1fxz2             0.278218       0.185057
                         38       1    1fy3              0.278218       0.082760
                         38       1    1fy2z             0.278218       0.185057
                         38       1    1fyz2             0.278218       0.185057
                         38       1    1fz3              0.278218       0.082760

                         39       1    1fx3              0.170021       0.027327
                         39       1    1fx2y             0.170021       0.061104
                         39       1    1fx2z             0.170021       0.061104
                         39       1    1fxy2             0.170021       0.061104
                         39       1    1fxyz             0.170021       0.105835
                         39       1    1fxz2             0.170021       0.061104
                         39       1    1fy3              0.170021       0.027327
                         39       1    1fy2z             0.170021       0.061104
                         39       1    1fyz2             0.170021       0.061104
                         39       1    1fz3              0.170021       0.027327

                         40       1    1gx4              3.240940      28.234536
                         40       1    1gx3y             3.240940      74.701560
                         40       1    1gx3z             3.240940      74.701560
                         40       1    1gx2y2            3.240940      96.439299
                         40       1    1gx2yz            3.240940     167.037766
                         40       1    1gx2z2            3.240940      96.439299
                         40       1    1gxy3             3.240940      74.701560
                         40       1    1gxy2z            3.240940     167.037766
                         40       1    1gxyz2            3.240940     167.037766
                         40       1    1gxz3             3.240940      74.701560
                         40       1    1gy4              3.240940      28.234536
                         40       1    1gy3z             3.240940      74.701560
                         40       1    1gy2z2            3.240940      96.439299
                         40       1    1gyz3             3.240940      74.701560
                         40       1    1gz4              3.240940      28.234536

                         41       1    1gx4              1.440740       3.037707
                         41       1    1gx3y             1.440740       8.037017
                         41       1    1gx3z             1.440740       8.037017
                         41       1    1gx2y2            1.440740      10.375744
                         41       1    1gx2yz            1.440740      17.971316
                         41       1    1gx2z2            1.440740      10.375744
                         41       1    1gxy3             1.440740       8.037017
                         41       1    1gxy2z            1.440740      17.971316
                         41       1    1gxyz2            1.440740      17.971316
                         41       1    1gxz3             1.440740       8.037017
                         41       1    1gy4              1.440740       3.037707
                         41       1    1gy3z             1.440740       8.037017
                         41       1    1gy2z2            1.440740      10.375744
                         41       1    1gyz3             1.440740       8.037017
                         41       1    1gz4              1.440740       3.037707

                         42       1    1gx4              0.630760       0.313373
                         42       1    1gx3y             0.630760       0.829107
                         42       1    1gx3z             0.630760       0.829107
                         42       1    1gx2y2            0.630760       1.070373
                         42       1    1gx2yz            0.630760       1.853941
                         42       1    1gx2z2            0.630760       1.070373
                         42       1    1gxy3             0.630760       0.829107
                         42       1    1gxy2z            0.630760       1.853941
                         42       1    1gxyz2            0.630760       1.853941
                         42       1    1gxz3             0.630760       0.829107
                         42       1    1gy4              0.630760       0.313373
                         42       1    1gy3z             0.630760       0.829107
                         42       1    1gy2z2            0.630760       1.070373
                         42       1    1gyz3             0.630760       0.829107
                         42       1    1gz4              0.630760       0.313373

                         43       1    1gx4              0.368941       0.071708
                         43       1    1gx3y             0.368941       0.189721
                         43       1    1gx3z             0.368941       0.189721
                         43       1    1gx2y2            0.368941       0.244929
                         43       1    1gx2yz            0.368941       0.424230
                         43       1    1gx2z2            0.368941       0.244929
                         43       1    1gxy3             0.368941       0.189721
                         43       1    1gxy2z            0.368941       0.424230
                         43       1    1gxyz2            0.368941       0.424230
                         43       1    1gxz3             0.368941       0.189721
                         43       1    1gy4              0.368941       0.071708
                         43       1    1gy3z             0.368941       0.189721
                         43       1    1gy2z2            0.368941       0.244929
                         43       1    1gyz3             0.368941       0.189721
                         43       1    1gz4              0.368941       0.071708

                         44       1    1gx4              0.179601       0.009903
                         44       1    1gx3y             0.179601       0.026202
                         44       1    1gx3z             0.179601       0.026202
                         44       1    1gx2y2            0.179601       0.033827
                         44       1    1gx2yz            0.179601       0.058589
                         44       1    1gx2z2            0.179601       0.033827
                         44       1    1gxy3             0.179601       0.026202
                         44       1    1gxy2z            0.179601       0.058589
                         44       1    1gxyz2            0.179601       0.058589
                         44       1    1gxz3             0.179601       0.026202
                         44       1    1gy4              0.179601       0.009903
                         44       1    1gy3z             0.179601       0.026202
                         44       1    1gy2z2            0.179601       0.033827
                         44       1    1gyz3             0.179601       0.026202
                         44       1    1gz4              0.179601       0.009903

                         45       1    1hx5              1.850340       5.481655
                         45       1    1hx4y             1.850340      16.444964
                         45       1    1hx4z             1.850340      16.444964
                         45       1    1hx3y2            1.850340      25.120097
                         45       1    1hx3yz            1.850340      43.509284
                         45       1    1hx3z2            1.850340      25.120097
                         45       1    1hx2y3            1.850340      25.120097
                         45       1    1hx2y2z           1.850340      56.170244
                         45       1    1hx2yz2           1.850340      56.170244
                         45       1    1hx2z3            1.850340      25.120097
                         45       1    1hxy4             1.850340      16.444964
                         45       1    1hxy3z            1.850340      43.509284
                         45       1    1hxy2z2           1.850340      56.170244
                         45       1    1hxyz3            1.850340      43.509284
                         45       1    1hxz4             1.850340      16.444964
                         45       1    1hy5              1.850340       5.481655
                         45       1    1hy4z             1.850340      16.444964
                         45       1    1hy3z2            1.850340      25.120097
                         45       1    1hy2z3            1.850340      25.120097
                         45       1    1hyz4             1.850340      16.444964
                         45       1    1hz5              1.850340       5.481655

                         46       1    1hx5              0.613491       0.151608
                         46       1    1hx4y             0.613491       0.454823
                         46       1    1hx4z             0.613491       0.454823
                         46       1    1hx3y2            0.613491       0.694753
                         46       1    1hx3yz            0.613491       1.203348
                         46       1    1hx3z2            0.613491       0.694753
                         46       1    1hx2y3            0.613491       0.694753
                         46       1    1hx2y2z           0.613491       1.553515
                         46       1    1hx2yz2           0.613491       1.553515
                         46       1    1hx2z3            0.613491       0.694753
                         46       1    1hxy4             0.613491       0.454823
                         46       1    1hxy3z            0.613491       1.203348
                         46       1    1hxy2z2           0.613491       1.553515
                         46       1    1hxyz3            0.613491       1.203348
                         46       1    1hxz4             0.613491       0.454823
                         46       1    1hy5              0.613491       0.151608
                         46       1    1hy4z             0.613491       0.454823
                         46       1    1hy3z2            0.613491       0.694753
                         46       1    1hy2z3            0.613491       0.694753
                         46       1    1hyz4             0.613491       0.454823
                         46       1    1hz5              0.613491       0.151608

                         47       1    1hx5              0.360425       0.026915
                         47       1    1hx4y             0.360425       0.080745
                         47       1    1hx4z             0.360425       0.080745
                         47       1    1hx3y2            0.360425       0.123340
                         47       1    1hx3yz            0.360425       0.213630
                         47       1    1hx3z2            0.360425       0.123340
                         47       1    1hx2y3            0.360425       0.123340
                         47       1    1hx2y2z           0.360425       0.275796
                         47       1    1hx2yz2           0.360425       0.275796
                         47       1    1hx2z3            0.360425       0.123340
                         47       1    1hxy4             0.360425       0.080745
                         47       1    1hxy3z            0.360425       0.213630
                         47       1    1hxy2z2           0.360425       0.275796
                         47       1    1hxyz3            0.360425       0.213630
                         47       1    1hxz4             0.360425       0.080745
                         47       1    1hy5              0.360425       0.026915
                         47       1    1hy4z             0.360425       0.080745
                         47       1    1hy3z2            0.360425       0.123340
                         47       1    1hy2z3            0.360425       0.123340
                         47       1    1hyz4             0.360425       0.080745
                         47       1    1hz5              0.360425       0.026915

                         48       1    1ix6              0.599455       0.065655
                         48       1    1ix5y             0.599455       0.217752
                         48       1    1ix5z             0.599455       0.217752
                         48       1    1ix4y2            0.599455       0.377157
                         48       1    1ix4yz            0.599455       0.653255
                         48       1    1ix4z2            0.599455       0.377157
                         48       1    1ix3y3            0.599455       0.446258
                         48       1    1ix3y2z           0.599455       0.997863
                         48       1    1ix3yz2           0.599455       0.997863
                         48       1    1ix3z3            0.599455       0.446258
                         48       1    1ix2y4            0.599455       0.377157
                         48       1    1ix2y3z           0.599455       0.997863
                         48       1    1ix2y2z2          0.599455       1.288236
                         48       1    1ix2yz3           0.599455       0.997863
                         48       1    1ix2z4            0.599455       0.377157
                         48       1    1ixy5             0.599455       0.217752
                         48       1    1ixy4z            0.599455       0.653255
                         48       1    1ixy3z2           0.599455       0.997863
                         48       1    1ixy2z3           0.599455       0.997863
                         48       1    1ixyz4            0.599455       0.653255
                         48       1    1ixz5             0.599455       0.217752
                         48       1    1iy6              0.599455       0.065655
                         48       1    1iy5z             0.599455       0.217752
                         48       1    1iy4z2            0.599455       0.377157
                         48       1    1iy3z3            0.599455       0.446258
                         48       1    1iy2z4            0.599455       0.377157
                         48       1    1iyz5             0.599455       0.217752
                         48       1    1iz6              0.599455       0.065655

     The atoms of this atomic kind are PAW atoms (GAPW):
       Hard Gaussian function radius:                                      1.512
       Rho0 radius:                                                        1.512
       Maximum GTO radius used for PAW projector construction:            24.566

     GAPW Soft Basis Set                                          def2-QZVP_soft

       Number of orbital shell sets:                                          22
       Number of orbital shells:                                              22
       Number of primitive Cartesian functions:                               19
       Number of Cartesian basis functions:                                   86
       Number of spherical basis functions:                                   70
       Norm type:                                                              2

       Normalised Cartesian orbitals:

                        Set   Shell   Orbital            Exponent    Coefficient

                          1       1    1s         

                          2       1    1s         

                          3       1    1s         

                          4       1    1s         

                          5       1    1s                2.057134       1.224213

                          6       1    1s                0.908645       0.663294

                          7       1    1s                0.242270       0.246113

                          8       1    1s                0.112481       0.138427

                          9       1    1s                0.048156       0.073266

                         10       1    1px               3.609040       2.713193
                                                         1.645608       0.981303
                         10       1    1py               3.609040       2.713193
                                                         1.645608       0.981303
                         10       1    1pz               3.609040       2.713193
                                                         1.645608       0.981303

                         11       1    1px               1.255308      -1.897757
                         11       1    1py               1.255308      -1.897757
                         11       1    1pz               1.255308      -1.897757

                         12       1    1px               0.736355       0.972298
                         12       1    1py               0.736355       0.972298
                         12       1    1pz               0.736355       0.972298

                         13       1    1px               0.246865       0.248035
                         13       1    1py               0.246865       0.248035
                         13       1    1pz               0.246865       0.248035

                         14       1    1px               0.094822       0.075003
                         14       1    1py               0.094822       0.075003
                         14       1    1pz               0.094822       0.075003

                         15       1    1px               0.036214       0.022518
                         15       1    1py               0.036214       0.022518
                         15       1    1pz               0.036214       0.022518

                         16       1    1dx2              1.970000       5.391695
                         16       1    1dxy              1.970000       9.338690
                         16       1    1dxz              1.970000       9.338690
                         16       1    1dy2              1.970000       5.391695
                         16       1    1dyz              1.970000       9.338690
                         16       1    1dz2              1.970000       5.391695

                         17       1    1dx2              0.437000       0.386591
                         17       1    1dxy              0.437000       0.669596
                         17       1    1dxz              0.437000       0.669596
                         17       1    1dy2              0.437000       0.386591
                         17       1    1dyz              0.437000       0.669596
                         17       1    1dz2              0.437000       0.386591

                         18       1    1dx2              0.195000       0.094182
                         18       1    1dxy              0.195000       0.163129
                         18       1    1dxz              0.195000       0.163129
                         18       1    1dy2              0.195000       0.094182
                         18       1    1dyz              0.195000       0.163129
                         18       1    1dz2              0.195000       0.094182

                         19       1    1dx2              0.080000       0.019807
                         19       1    1dxy              0.080000       0.034307
                         19       1    1dxz              0.080000       0.034307
                         19       1    1dy2              0.080000       0.019807
                         19       1    1dyz              0.080000       0.034307
                         19       1    1dz2              0.080000       0.019807

                         20       1    1fx3              0.154000       0.021871
                         20       1    1fx2y             0.154000       0.048906
                         20       1    1fx2z             0.154000       0.048906
                         20       1    1fxy2             0.154000       0.048906
                         20       1    1fxyz             0.154000       0.084707
                         20       1    1fxz2             0.154000       0.048906
                         20       1    1fy3              0.154000       0.021871
                         20       1    1fy2z             0.154000       0.048906
                         20       1    1fyz2             0.154000       0.048906
                         20       1    1fz3              0.154000       0.021871

                         21       1    1fx3              0.401000       0.188378
                         21       1    1fx2y             0.401000       0.421225
                         21       1    1fx2z             0.401000       0.421225
                         21       1    1fxy2             0.401000       0.421225
                         21       1    1fxyz             0.401000       0.729583
                         21       1    1fxz2             0.401000       0.421225
                         21       1    1fy3              0.401000       0.188378
                         21       1    1fy2z             0.401000       0.421225
                         21       1    1fyz2             0.401000       0.421225
                         21       1    1fz3              0.401000       0.188378

                         22       1    1gx4              0.357000       0.065505
                         22       1    1gx3y             0.357000       0.173309
                         22       1    1gx3z             0.357000       0.173309
                         22       1    1gx2y2            0.357000       0.223741
                         22       1    1gx2yz            0.357000       0.387532
                         22       1    1gx2z2            0.357000       0.223741
                         22       1    1gxy3             0.357000       0.173309
                         22       1    1gxy2z            0.357000       0.387532
                         22       1    1gxyz2            0.357000       0.387532
                         22       1    1gxz3             0.357000       0.173309
                         22       1    1gy4              0.357000       0.065505
                         22       1    1gy3z             0.357000       0.173309
                         22       1    1gy2z2            0.357000       0.223741
                         22       1    1gyz3             0.357000       0.173309
                         22       1    1gz4              0.357000       0.065505

     AE Potential information for                                            ALL

       Description:                                       All-electron potential
                                          Krack, Parrinello, PCCP 2, 2105 (2000)

       Gaussian exponent of the core charge distribution:               2.469136
       Electronic configuration (s p d ...):                           6   7   0

  2. Atomic kind: F                                     Number of atoms:       3

     Orbital Basis Set                                                 def2-QZVP

       Number of orbital shell sets:                                          17
       Number of orbital shells:                                              17
       Number of primitive Cartesian functions:                               29
       Number of Cartesian basis functions:                                   72
       Number of spherical basis functions:                                   57
       Norm type:                                                              2

       Normalised Cartesian orbitals:

                        Set   Shell   Orbital            Exponent    Coefficient

                          1       1    1s           132535.973450       0.386108
                                                     19758.112588       0.724649
                                                      4485.199695       1.250455
                                                      1273.815102       2.015188
                                                       418.938312       3.040568
                                                       152.557220       4.212686
                                                        59.821525       5.009443
                                                        24.819077       4.546938

                          2       1    1s              100.744467       2.325033
                                                        30.103728       8.414408

                          3       1    1s               10.814283       4.250191

                          4       1    1s                4.817289       2.317459

                          5       1    1s                1.655933       1.040381

                          6       1    1s                0.648935       0.515301

                          7       1    1s                0.247781       0.250300

                          8       1    1px             240.966541       3.491668
                                                        57.020700       4.618861
                                                        18.126952       5.179649
                                                         6.645740       4.786262
                                                         2.637572       3.245784
                          8       1    1py             240.966541       3.491668
                                                        57.020700       4.618861
                                                        18.126952       5.179649
                                                         6.645740       4.786262
                                                         2.637572       3.245784
                          8       1    1pz             240.966541       3.491668
                                                        57.020700       4.618861
                                                        18.126952       5.179649
                                                         6.645740       4.786262
                                                         2.637572       3.245784

                          9       1    1px               1.063822       1.540019
                          9       1    1py               1.063822       1.540019
                          9       1    1pz               1.063822       1.540019

                         10       1    1px               0.419326       0.480983
                         10       1    1py               0.419326       0.480983
                         10       1    1pz               0.419326       0.480983

                         11       1    1px               0.157476       0.141403
                         11       1    1py               0.157476       0.141403
                         11       1    1pz               0.157476       0.141403

                         12       1    1dx2              5.014000      27.652349
                         12       1    1dxy              5.014000      47.895274
                         12       1    1dxz              5.014000      47.895274
                         12       1    1dy2              5.014000      27.652349
                         12       1    1dyz              5.014000      47.895274
                         12       1    1dz2              5.014000      27.652349

                         13       1    1dx2              1.725000       4.273566
                         13       1    1dxy              1.725000       7.402033
                         13       1    1dxz              1.725000       7.402033
                         13       1    1dy2              1.725000       4.273566
                         13       1    1dyz              1.725000       7.402033
                         13       1    1dz2              1.725000       4.273566

                         14       1    1dx2              0.586000       0.645997
                         14       1    1dxy              0.586000       1.118899
                         14       1    1dxz              0.586000       1.118899
                         14       1    1dy2              0.586000       0.645997
                         14       1    1dyz              0.586000       1.118899
                         14       1    1dz2              0.586000       0.645997

                         15       1    1fx3              3.562000      25.660538
                         15       1    1fx2y             3.562000      57.378707
                         15       1    1fx2z             3.562000      57.378707
                         15       1    1fxy2             3.562000      57.378707
                         15       1    1fxyz             3.562000      99.382837
                         15       1    1fxz2             3.562000      57.378707
                         15       1    1fy3              3.562000      25.660538
                         15       1    1fy2z             3.562000      57.378707
                         15       1    1fyz2             3.562000      57.378707
                         15       1    1fz3              3.562000      25.660538

                         16       1    1fx3              1.148000       2.008277
                         16       1    1fx2y             1.148000       4.490645
                         16       1    1fx2z             1.148000       4.490645
                         16       1    1fxy2             1.148000       4.490645
                         16       1    1fxyz             1.148000       7.778025
                         16       1    1fxz2             1.148000       4.490645
                         16       1    1fy3              1.148000       2.008277
                         16       1    1fy2z             1.148000       4.490645
                         16       1    1fyz2             1.148000       4.490645
                         16       1    1fz3              1.148000       2.008277

                         17       1    1gx4              2.376000      12.023008
                         17       1    1gx3y             2.376000      31.809888
                         17       1    1gx3z             2.376000      31.809888
                         17       1    1gx2y2            2.376000      41.066389
                         17       1    1gx2yz            2.376000      71.129073
                         17       1    1gx2z2            2.376000      41.066389
                         17       1    1gxy3             2.376000      31.809888
                         17       1    1gxy2z            2.376000      71.129073
                         17       1    1gxyz2            2.376000      71.129073
                         17       1    1gxz3             2.376000      31.809888
                         17       1    1gy4              2.376000      12.023008
                         17       1    1gy3z             2.376000      31.809888
                         17       1    1gy2z2            2.376000      41.066389
                         17       1    1gyz3             2.376000      31.809888
                         17       1    1gz4              2.376000      12.023008

     RI Auxiliary Basis Set                                                RI-5Z

       Number of orbital shell sets:                                          39
       Number of orbital shells:                                              39
       Number of primitive Cartesian functions:                               39
       Number of Cartesian basis functions:                                  287
       Number of spherical basis functions:                                  193
       Norm type:                                                              2

       Normalised Cartesian orbitals:

                        Set   Shell   Orbital            Exponent    Coefficient

                          1       1    1s              645.424000      91.262829

                          2       1    1s              138.618000      28.792198

                          3       1    1s               38.729500      11.064748

                          4       1    1s               21.723600       7.171482

                          5       1    1s                7.480350       3.223677

                          6       1    1s                4.284400       2.122402

                          7       1    1s                2.601990       1.460123

                          8       1    1s                1.340780       0.888031

                          9       1    1s                0.603875       0.488225

                         10       1    1s                0.299915       0.288841

                         11       1    1px             118.066000     554.748517
                         11       1    1py             118.066000     554.748517
                         11       1    1pz             118.066000     554.748517

                         12       1    1px              32.033700     108.629797
                         12       1    1py              32.033700     108.629797
                         12       1    1pz              32.033700     108.629797

                         13       1    1px              13.592500      37.201827
                         13       1    1py              13.592500      37.201827
                         13       1    1pz              13.592500      37.201827

                         14       1    1px               6.289910      14.198603
                         14       1    1py               6.289910      14.198603
                         14       1    1pz               6.289910      14.198603

                         15       1    1px               3.490790       6.801344
                         15       1    1py               3.490790       6.801344
                         15       1    1pz               3.490790       6.801344

                         16       1    1px               1.639320       2.644051
                         16       1    1py               1.639320       2.644051
                         16       1    1pz               1.639320       2.644051

                         17       1    1px               0.880017       1.214937
                         17       1    1py               0.880017       1.214937
                         17       1    1pz               0.880017       1.214937

                         18       1    1px               0.533003       0.649161
                         18       1    1py               0.533003       0.649161
                         18       1    1pz               0.533003       0.649161

                         19       1    1dx2             27.767600     552.842674
                         19       1    1dxy             27.767600     957.551601
                         19       1    1dxz             27.767600     957.551601
                         19       1    1dy2             27.767600     552.842674
                         19       1    1dyz             27.767600     957.551601
                         19       1    1dz2             27.767600     552.842674

                         20       1    1dx2              8.880760      75.196424
                         20       1    1dxy              8.880760     130.244027
                         20       1    1dxz              8.880760     130.244027
                         20       1    1dy2              8.880760      75.196424
                         20       1    1dyz              8.880760     130.244027
                         20       1    1dz2              8.880760      75.196424

                         21       1    1dx2              5.495020      32.460536
                         21       1    1dxy              5.495020      56.223298
                         21       1    1dxz              5.495020      56.223298
                         21       1    1dy2              5.495020      32.460536
                         21       1    1dyz              5.495020      56.223298
                         21       1    1dz2              5.495020      32.460536

                         22       1    1dx2              2.971120      11.066742
                         22       1    1dxy              2.971120      19.168160
                         22       1    1dxz              2.971120      19.168160
                         22       1    1dy2              2.971120      11.066742
                         22       1    1dyz              2.971120      19.168160
                         22       1    1dz2              2.971120      11.066742

                         23       1    1dx2              1.819720       4.692642
                         23       1    1dxy              1.819720       8.127895
                         23       1    1dxz              1.819720       8.127895
                         23       1    1dy2              1.819720       4.692642
                         23       1    1dyz              1.819720       8.127895
                         23       1    1dz2              1.819720       4.692642

                         24       1    1dx2              0.890528       1.343670
                         24       1    1dxy              0.890528       2.327305
                         24       1    1dxz              0.890528       2.327305
                         24       1    1dy2              0.890528       1.343670
                         24       1    1dyz              0.890528       2.327305
                         24       1    1dz2              0.890528       1.343670

                         25       1    1dx2              0.367580       0.285611
                         25       1    1dxy              0.367580       0.494693
                         25       1    1dxz              0.367580       0.494693
                         25       1    1dy2              0.367580       0.285611
                         25       1    1dyz              0.367580       0.494693
                         25       1    1dz2              0.367580       0.285611

                         26       1    1fx3             18.500300    1044.976886
                         26       1    1fx2y            18.500300    2336.639352
                         26       1    1fx2z            18.500300    2336.639352
                         26       1    1fxy2            18.500300    2336.639352
                         26       1    1fxyz            18.500300    4047.178077
                         26       1    1fxz2            18.500300    2336.639352
                         26       1    1fy3             18.500300    1044.976886
                         26       1    1fy2z            18.500300    2336.639352
                         26       1    1fyz2            18.500300    2336.639352
                         26       1    1fz3             18.500300    1044.976886

                         27       1    1fx3              8.608610     186.876105
                         27       1    1fx2y             8.608610     417.867675
                         27       1    1fx2z             8.608610     417.867675
                         27       1    1fxy2             8.608610     417.867675
                         27       1    1fxyz             8.608610     723.768044
                         27       1    1fxz2             8.608610     417.867675
                         27       1    1fy3              8.608610     186.876105
                         27       1    1fy2z             8.608610     417.867675
                         27       1    1fyz2             8.608610     417.867675
                         27       1    1fz3              8.608610     186.876105

                         28       1    1fx3              4.943880      53.654638
                         28       1    1fx2y             4.943880     119.975419
                         28       1    1fx2z             4.943880     119.975419
                         28       1    1fxy2             4.943880     119.975419
                         28       1    1fxyz             4.943880     207.803521
                         28       1    1fxz2             4.943880     119.975419
                         28       1    1fy3              4.943880      53.654638
                         28       1    1fy2z             4.943880     119.975419
                         28       1    1fyz2             4.943880     119.975419
                         28       1    1fz3              4.943880      53.654638

                         29       1    1fx3              2.814490      15.104411
                         29       1    1fx2y             2.814490      33.774490
                         29       1    1fx2z             2.814490      33.774490
                         29       1    1fxy2             2.814490      33.774490
                         29       1    1fxyz             2.814490      58.499133
                         29       1    1fxz2             2.814490      33.774490
                         29       1    1fy3              2.814490      15.104411
                         29       1    1fy2z             2.814490      33.774490
                         29       1    1fyz2             2.814490      33.774490
                         29       1    1fz3              2.814490      15.104411

                         30       1    1fx3              1.581520       4.129263
                         30       1    1fx2y             1.581520       9.233312
                         30       1    1fx2z             1.581520       9.233312
                         30       1    1fxy2             1.581520       9.233312
                         30       1    1fxyz             1.581520      15.992565
                         30       1    1fxz2             1.581520       9.233312
                         30       1    1fy3              1.581520       4.129263
                         30       1    1fy2z             1.581520       9.233312
[...]
                         16       1    1fyz2             1.148000       4.490645
                         16       1    1fz3              1.148000       2.008277

                         17       1    1gx4              2.376000      12.023008
                         17       1    1gx3y             2.376000      31.809888
                         17       1    1gx3z             2.376000      31.809888
                         17       1    1gx2y2            2.376000      41.066389
                         17       1    1gx2yz            2.376000      71.129073
                         17       1    1gx2z2            2.376000      41.066389
                         17       1    1gxy3             2.376000      31.809888
                         17       1    1gxy2z            2.376000      71.129073
                         17       1    1gxyz2            2.376000      71.129073
                         17       1    1gxz3             2.376000      31.809888
                         17       1    1gy4              2.376000      12.023008
                         17       1    1gy3z             2.376000      31.809888
                         17       1    1gy2z2            2.376000      41.066389
                         17       1    1gyz3             2.376000      31.809888
                         17       1    1gz4              2.376000      12.023008

     AE Potential information for                                            ALL

       Description:                                       All-electron potential
                                          Krack, Parrinello, PCCP 2, 2105 (2000)

       Gaussian exponent of the core charge distribution:              10.470541
       Electronic configuration (s p d ...):                           4   5   0


 MOLECULE KIND INFORMATION


 All atoms are their own molecule, skipping detailed information


 TOTAL NUMBERS AND MAXIMUM NUMBERS

  Total number of            - Atomic kinds:                                   2
                             - Atoms:                                          4
                             - Shell sets:                                    73
                             - Shells:                                        73
                             - Primitive Cartesian functions:                128
                             - Cartesian basis functions:                    302
                             - Spherical basis functions:                    241

  Maximum angular momentum of the orbital basis functions:                     4


 MODULE QUICKSTEP:  ATOMIC COORDINATES IN angstrom

  Atom  Kind  Element       X           Y           Z          Z(eff)       Mass

       1     1 Al  13    8.000000    8.000000    7.591750     13.00      26.9815
       2     2 F    9    8.000000    8.000000    9.224750      9.00      18.9984
       3     2 F    9    8.000000    9.414200    6.775250      9.00      18.9984
       4     2 F    9    8.000000    6.585800    6.775250      9.00      18.9984




 SCF PARAMETERS         Density guess:                                   RESTART
                        --------------------------------------------------------
                        max_scf:                                             200
                        max_scf_history:                                       0
                        max_diis:                                              4
                        --------------------------------------------------------
                        eps_scf:                                        1.00E-06
                        eps_scf_history:                                0.00E+00
                        eps_diis:                                       1.00E-01
                        eps_eigval:                                     1.00E-05
                        --------------------------------------------------------
                        level_shift [a.u.]:                                 0.00
                        --------------------------------------------------------
                        Mixing method:                           DIRECT_P_MIXING
                        --------------------------------------------------------
                        No outer SCF

 PW_GRID| Information for grid number                                          1
 PW_GRID| Grid distributed over                                    24 processors
 PW_GRID| Real space group dimensions                                    24    1
 PW_GRID| the grid is blocked:                                                NO
 PW_GRID| Cutoff [a.u.]                                                    400.0
 PW_GRID| spherical cutoff:                                                   NO
 PW_GRID|   Bounds   1           -144     143                Points:         288
 PW_GRID|   Bounds   2           -144     143                Points:         288
 PW_GRID|   Bounds   3           -144     143                Points:         288
 PW_GRID| Volume element (a.u.^3)  0.1157E-02     Volume (a.u.^3)     27641.1785
 PW_GRID| Grid span                                                    FULLSPACE
 PW_GRID|   Distribution                         Average         Max         Min
 PW_GRID|   G-Vectors                           995328.0      995328      995328
 PW_GRID|   G-Rays                                3456.0        3456        3456
 PW_GRID|   Real Space Points                   995328.0      995328      995328

 PW_GRID| Information for grid number                                          2
 PW_GRID| Grid distributed over                                    24 processors
 PW_GRID| Real space group dimensions                                    24    1
 PW_GRID| the grid is blocked:                                                NO
 PW_GRID| Cutoff [a.u.]                                                    200.0
 PW_GRID| spherical cutoff:                                                   NO
 PW_GRID|   Bounds   1           -100      99                Points:         200
 PW_GRID|   Bounds   2           -100      99                Points:         200
 PW_GRID|   Bounds   3           -100      99                Points:         200
 PW_GRID| Volume element (a.u.^3)  0.3455E-02     Volume (a.u.^3)     27641.1785
 PW_GRID| Grid span                                                    FULLSPACE
 PW_GRID|   Distribution                         Average         Max         Min
 PW_GRID|   G-Vectors                           333333.3      333600      333200
 PW_GRID|   G-Rays                                1666.7        1668        1666
 PW_GRID|   Real Space Points                   333333.3      360000      320000

 PW_GRID| Information for grid number                                          3
 PW_GRID| Grid distributed over                                    24 processors
 PW_GRID| Real space group dimensions                                    24    1
 PW_GRID| the grid is blocked:                                                NO
 PW_GRID| Cutoff [a.u.]                                                     66.7
 PW_GRID| spherical cutoff:                                                   NO
 PW_GRID|   Bounds   1            -60      59                Points:         120
 PW_GRID|   Bounds   2            -60      59                Points:         120
 PW_GRID|   Bounds   3            -60      59                Points:         120
 PW_GRID| Volume element (a.u.^3)  0.1600E-01     Volume (a.u.^3)     27641.1785
 PW_GRID| Grid span                                                    FULLSPACE
 PW_GRID|   Distribution                         Average         Max         Min
 PW_GRID|   G-Vectors                            72000.0       72360       71760
 PW_GRID|   G-Rays                                 600.0         603         598
 PW_GRID|   Real Space Points                    72000.0       72000       72000

 PW_GRID| Information for grid number                                          4
 PW_GRID| Grid distributed over                                    24 processors
 PW_GRID| Real space group dimensions                                    24    1
 PW_GRID| the grid is blocked:                                                NO
 PW_GRID| Cutoff [a.u.]                                                     22.2
 PW_GRID| spherical cutoff:                                                   NO
 PW_GRID|   Bounds   1            -36      35                Points:          72
 PW_GRID|   Bounds   2            -36      35                Points:          72
 PW_GRID|   Bounds   3            -36      35                Points:          72
 PW_GRID| Volume element (a.u.^3)  0.7406E-01     Volume (a.u.^3)     27641.1785
 PW_GRID| Grid span                                                    FULLSPACE
 PW_GRID|   Distribution                         Average         Max         Min
 PW_GRID|   G-Vectors                            15552.0       15768       15408
 PW_GRID|   G-Rays                                 216.0         219         214
 PW_GRID|   Real Space Points                    15552.0       15552       15552

 PW_GRID| Information for grid number                                          5
 PW_GRID| Grid distributed over                                    24 processors
 PW_GRID| Real space group dimensions                                    24    1
 PW_GRID| the grid is blocked:                                                NO
 PW_GRID| Cutoff [a.u.]                                                      7.4
 PW_GRID| spherical cutoff:                                                   NO
 PW_GRID|   Bounds   1            -20      19                Points:          40
 PW_GRID|   Bounds   2            -20      19                Points:          40
 PW_GRID|   Bounds   3            -20      19                Points:          40
 PW_GRID| Volume element (a.u.^3)  0.4319         Volume (a.u.^3)     27641.1785
 PW_GRID| Grid span                                                    FULLSPACE
 PW_GRID|   Distribution                         Average         Max         Min
 PW_GRID|   G-Vectors                             2666.7        2720        2640
 PW_GRID|   G-Rays                                  66.7          68          66
 PW_GRID|   Real Space Points                     2666.7        3200        1600

 POISSON| Solver                                          Martyna-Tuckerman (MT)
 POISSON| MT| Alpha                                                        7.000
 POISSON| MT| Relative cutoff                                                2.0
 POISSON| Periodicity                                                       NONE

 RS_GRID| Information for grid number                                          2
 RS_GRID|   Bounds   1           -100      99                Points:         200
 RS_GRID|   Bounds   2           -100      99                Points:         200
 RS_GRID|   Bounds   3           -100      99                Points:         200
 RS_GRID| Real space distribution over                                  4 groups
 RS_GRID| Real space distribution along direction                              2
 RS_GRID| Border size                                                         26
 RS_GRID| Real space distribution over                                  6 groups
 RS_GRID| Real space distribution along direction                              3
 RS_GRID| Border size                                                         26
 RS_GRID|   Distribution                         Average         Max         Min
 RS_GRID|   Planes                                 102.0         102         102
 RS_GRID|   Distribution                         Average         Max         Min
 RS_GRID|   Planes                                  85.3          86          85

 RS_GRID| Information for grid number                                          3
 RS_GRID|   Bounds   1            -60      59                Points:         120
 RS_GRID|   Bounds   2            -60      59                Points:         120
 RS_GRID|   Bounds   3            -60      59                Points:         120
 RS_GRID| Real space distribution over                                  4 groups
 RS_GRID| Real space distribution along direction                              2
 RS_GRID| Border size                                                         27
 RS_GRID| Real space distribution over                                  6 groups
 RS_GRID| Real space distribution along direction                              3
 RS_GRID| Border size                                                         27
 RS_GRID|   Distribution                         Average         Max         Min
 RS_GRID|   Planes                                  84.0          84          84
 RS_GRID|   Distribution                         Average         Max         Min
 RS_GRID|   Planes                                  74.0          74          74

 RS_GRID| Information for grid number                                          4
 RS_GRID|   Bounds   1            -36      35                Points:          72
 RS_GRID|   Bounds   2            -36      35                Points:          72
 RS_GRID|   Bounds   3            -36      35                Points:          72
 RS_GRID| Real space fully replicated
 RS_GRID| Group size                                                           1

 RS_GRID| Information for grid number                                          5
 RS_GRID|   Bounds   1            -20      19                Points:          40
 RS_GRID|   Bounds   2            -20      19                Points:          40
 RS_GRID|   Bounds   3            -20      19                Points:          40
 RS_GRID| Real space fully replicated
 RS_GRID| Group size                                                           1
 
 RI-RPA| using GPW style
 

  HFX_INFO| Replica ID:                                                        1
  HFX_INFO| EPS_SCHWARZ:                                                 2.0E-17
  HFX_INFO| EPS_SCHWARZ_FORCES                                           1.0E-06
  HFX_INFO| EPS_STORAGE_SCALING:                                         1.0E+00
  HFX_INFO| NBINS:                                                            64
  HFX_INFO| BLOCK_SIZE:                                                        1
  HFX_INFO| FRACTION:                                               1.0000000000
  HFX_INFO| Interaction Potential:                                       COULOMB
  HFX_INFO| Number of periodic shells considered:                           NONE
  HFX_INFO| Number of periodic cells considered:                            NONE


 Number of electrons:                                                         40
 Number of occupied orbitals:                                                 20
 Number of molecular orbitals:                                                20

 Number of orbital functions:                                                241
 Number of independent orbital functions:                                    241

 Extrapolation method: initial_guess


 SCF WAVEFUNCTION OPTIMIZATION

  Step     Update method      Time    Convergence         Total energy    Change
  ------------------------------------------------------------------------------
     1 P_Mix/Diag. 0.40E+00    3.5     0.00000113      -541.9417832236 -5.42E+02
     2 P_Mix/Diag. 0.40E+00    3.3     0.00000035      -541.9417832236 -1.48E-12

  *** SCF run converged in     2 steps ***


  Electronic density on regular grids:        -27.5959323270       12.4040676730
  Core density on regular grids:               40.0000000000        0.0000000000
  Hard and soft densities (Lebedev):          -72.3405007465      -59.9364321358
  Total Rho_soft + Rho1_hard - Rho1_soft      -40.0000009377
  Total charge density (r-space):              -0.0000009377
  Total Rho_soft + Rho0_soft (g-space):        -0.0000012099

  Overlap energy of the core charge distribution:               0.00000007832518
  Self energy of the core charge distribution:               -419.63243529836217
  Core Hamiltonian energy:                                   -146.77614872546155
  Hartree energy:                                              58.53024064973617
  Exchange-correlation energy:                                -17.50516012168333

  GAPW| Exc from hard and soft atomic rho1:                   -32.28692335106872
  GAPW| local Eh = 1 center integrals:                         15.72864354490083

  Total energy:                                              -541.94178322361358

 !-----------------------------------------------------------------------------!
                     Mulliken Population Analysis

 #  Atom  Element  Kind  Atomic population                           Net charge
       1     Al       1         11.875461                              1.124539
       2     F        2          9.374825                             -0.374825
       3     F        2          9.374857                             -0.374857
       4     F        2          9.374857                             -0.374857
 # Total charge                             40.000000                 -0.000000

 !-----------------------------------------------------------------------------!

 !-----------------------------------------------------------------------------!
                           Hirshfeld Charges

  #Atom  Element  Kind  Ref Charge     Population                    Net charge
      1       Al     1      13.000         12.992                         0.008
      2       F      2       9.000          9.002                        -0.002
      3       F      2       9.000          9.002                        -0.002
      4       F      2       9.000          9.002                        -0.002

  Total Charge                                                            0.001
 !-----------------------------------------------------------------------------!


 RI-RPA section
 --------------

  Used number of processes per group:                                          1
  Maximum allowed memory usage per MPI processes:                     200.00 MiB

  HFX_MEM_INFO| Est. max. program size before HFX [MiB]:                     446
  HFX_MEM_INFO| Number of cart. primitive ERI's calculated:           4349037880
  HFX_MEM_INFO| Number of sph. ERI's calculated:                       692475259
  HFX_MEM_INFO| Number of sph. ERI's stored in-core:                   692475259
  HFX_MEM_INFO| Number of sph. ERI's stored on disk:                           0
  HFX_MEM_INFO| Number of sph. ERI's calculated on the fly:                    0
  HFX_MEM_INFO| Total memory consumption ERI's RAM [MiB]:                   3717
  HFX_MEM_INFO| Whereof max-vals [MiB]:                                        4
  HFX_MEM_INFO| Total compression factor ERI's RAM:                         1.42
  HFX_MEM_INFO| Total memory consumption ERI's disk [MiB]:                     0
  HFX_MEM_INFO| Total compression factor ERI's disk:                        0.00
  HFX_MEM_INFO| Size of density/Fock matrix [MiB]:                             0
  HFX_MEM_INFO| Size of buffers [MiB]:                                         3
  HFX_MEM_INFO| Est. max. program size after HFX  [MiB]:                     635

  GPW_INFO| Density cutoff [a.u.]:                                         150.0
  GPW_INFO| Relative density cutoff [a.u.]:                                 25.0
  RI_INFO| Cholesky decomposition group size:                                 24
  RI_INFO| Number of groups for auxiliary basis functions                     24
  RI_INFO| Occupied  basis set size:                                          20
  RI_INFO| Virtual   basis set size:                                         221
  RI_INFO| Auxiliary basis set size:                                         809
  RI_INFO| Total memory for (ia|K) integrals:                          27.28 MiB
